 Entering Gaussian System, Link 0=g09
 Input=LiF.com
 Output=LiF.log
 Initial command:
 /programs/64bit/g09/g09-gfortran/bin/l1.exe /data/scratch/Gau-3857.inp -scrdir=/data/scratch/
 Entering Link 1 = /programs/64bit/g09/g09-gfortran/bin/l1.exe PID=      3858.
  
 Copyright (c) 1988,1990,1992,1993,1995,1998,2003,2009, Gaussian, Inc.
                  All Rights Reserved.
  
 This is part of the Gaussian(R) 09 program.  It is based on
 the Gaussian(R) 03 system (copyright 2003, Gaussian, Inc.),
 the Gaussian(R) 98 system (copyright 1998, Gaussian, Inc.),
 the Gaussian(R) 94 system (copyright 1995, Gaussian, Inc.),
 the Gaussian 92(TM) system (copyright 1992, Gaussian, Inc.),
 the Gaussian 90(TM) system (copyright 1990, Gaussian, Inc.),
 the Gaussian 88(TM) system (copyright 1988, Gaussian, Inc.),
 the Gaussian 86(TM) system (copyright 1986, Carnegie Mellon
 University), and the Gaussian 82(TM) system (copyright 1983,
 Carnegie Mellon University). Gaussian is a federally registered
 trademark of Gaussian, Inc.
  
 This software contains proprietary and confidential information,
 including trade secrets, belonging to Gaussian, Inc.
  
 This software is provided under written license and may be
 used, copied, transmitted, or stored only in accord with that
 written license.
  
 The following legend is applicable only to US Government
 contracts under FAR:
  
                    RESTRICTED RIGHTS LEGEND
  
 Use, reproduction and disclosure by the US Government is
 subject to restrictions as set forth in subparagraphs (a)
 and (c) of the Commercial Computer Software - Restricted
 Rights clause in FAR 52.227-19.
  
 Gaussian, Inc.
 340 Quinnipiac St., Bldg. 40, Wallingford CT 06492
  
  
 ---------------------------------------------------------------
 Warning -- This program may not be used in any manner that
 competes with the business of Gaussian, Inc. or will provide
 assistance to any competitor of Gaussian, Inc.  The licensee
 of this program is prohibited from giving any competitor of
 Gaussian, Inc. access to this program.  By using this program,
 the user acknowledges that Gaussian, Inc. is engaged in the
 business of creating and licensing software in the field of
 computational chemistry and represents and warrants to the
 licensee that it is not a competitor of Gaussian, Inc. and that
 it will not use this program in any manner prohibited above.
 ---------------------------------------------------------------
  

 Cite this work as:
 Gaussian 09, Revision A.02,
 M. J. Frisch, G. W. Trucks, H. B. Schlegel, G. E. Scuseria, 
 M. A. Robb, J. R. Cheeseman, G. Scalmani, V. Barone, B. Mennucci, 
 G. A. Petersson, H. Nakatsuji, M. Caricato, X. Li, H. P. Hratchian, 
 A. F. Izmaylov, J. Bloino, G. Zheng, J. L. Sonnenberg, M. Hada, 
 M. Ehara, K. Toyota, R. Fukuda, J. Hasegawa, M. Ishida, T. Nakajima, 
 Y. Honda, O. Kitao, H. Nakai, T. Vreven, J. A. Montgomery, Jr., 
 J. E. Peralta, F. Ogliaro, M. Bearpark, J. J. Heyd, E. Brothers, 
 K. N. Kudin, V. N. Staroverov, R. Kobayashi, J. Normand, 
 K. Raghavachari, A. Rendell, J. C. Burant, S. S. Iyengar, J. Tomasi, 
 M. Cossi, N. Rega, J. M. Millam, M. Klene, J. E. Knox, J. B. Cross, 
 V. Bakken, C. Adamo, J. Jaramillo, R. Gomperts, R. E. Stratmann, 
 O. Yazyev, A. J. Austin, R. Cammi, C. Pomelli, J. W. Ochterski, 
 R. L. Martin, K. Morokuma, V. G. Zakrzewski, G. A. Voth, 
 P. Salvador, J. J. Dannenberg, S. Dapprich, A. D. Daniels, 
 O. Farkas, J. B. Foresman, J. V. Ortiz, J. Cioslowski, 
 and D. J. Fox, Gaussian, Inc., Wallingford CT, 2009.
 
 ******************************************
 Gaussian 09:  EM64L-G09RevA.02 11-Jun-2009
                24-May-2024 
 ******************************************
 -----------------------------
 #p B3LYP/6-31+g** opt out=wfn
 -----------------------------
 1/14=-1,18=20,19=15,26=3,38=1/1,3;
 2/9=110,12=2,17=6,18=5,40=1/2;
 3/5=1,6=6,7=111,11=2,16=1,25=1,30=1,71=1,74=-5/1,2,3;
 4//1;
 5/5=2,38=5/2;
 6/7=2,8=2,9=2,10=2,28=1/1;
 7//1,2,3,16;
 1/14=-1,18=20,19=15/3(2);
 2/9=110/2;
 99/6=100/99;
 2/9=110/2;
 3/5=1,6=6,7=111,11=2,16=1,25=1,30=1,71=1,74=-5/1,2,3;
 4/5=5,16=3/1;
 5/5=2,38=5/2;
 7//1,2,3,16;
 1/14=-1,18=20,19=15/3(-5);
 2/9=110/2;
 6/7=2,8=2,9=2,10=2,19=2,28=1/1;
 99/6=100,9=1/99;
 Leave Link    1 at Fri May 24 11:35:32 2024, MaxMem=          0 cpu:       0.0
 (Enter /programs/64bit/g09/g09-gfortran/bin/l101.exe)
 ----------------
 floruro di litio
 ----------------
 Symbolic Z-matrix:
 Charge =  0 Multiplicity = 1
 li
 f                    1    fli2
       Variables:
  fli2                  1.6856                   
 
 NAtoms=      2 NQM=      2 NQMF=      0 NMic=      0 NMicF=      0 NTot=      2.
                    Isotopes and Nuclear Properties:
 (Nuclear quadrupole moments (NQMom) in fm**2, nuclear magnetic moments (NMagM)
  in nuclear magnetons)

  Atom         1           2
 IAtWgt=           7          19
 AtmWgt=   7.0160045  18.9984032
 NucSpn=           3           1
 AtZEff=   0.0000000   0.0000000
 NQMom=   -4.0100000   0.0000000
 NMagM=    3.2564240   2.6288670
 Leave Link  101 at Fri May 24 11:35:32 2024, MaxMem=   33554432 cpu:       0.1
 (Enter /programs/64bit/g09/g09-gfortran/bin/l103.exe)

 GradGradGradGradGradGradGradGradGradGradGradGradGradGradGradGradGradGrad
 Berny optimization.
 Initialization pass.
                           ----------------------------
                           !    Initial Parameters    !
                           ! (Angstroms and Degrees)  !
 --------------------------                            --------------------------
 ! Name  Definition              Value          Derivative Info.                !
 --------------------------------------------------------------------------------
 ! R1    R(1,2)                  1.6856         estimate D2E/DX2                !
 --------------------------------------------------------------------------------
 Trust Radius=3.00D-01 FncErr=1.00D-07 GrdErr=1.00D-06
 Number of steps in this run=  20 maximum allowed number of steps= 100.
 GradGradGradGradGradGradGradGradGradGradGradGradGradGradGradGradGradGrad

 Leave Link  103 at Fri May 24 11:35:32 2024, MaxMem=   33554432 cpu:       0.0
 (Enter /programs/64bit/g09/g09-gfortran/bin/l202.exe)
                          Input orientation:                          
 ---------------------------------------------------------------------
 Center     Atomic      Atomic             Coordinates (Angstroms)
 Number     Number       Type             X           Y           Z
 ---------------------------------------------------------------------
      1          3           0        0.000000    0.000000    0.000000
      2          9           0        0.000000    0.000000    1.685600
 ---------------------------------------------------------------------
 Stoichiometry    FLi
 Framework group  C*V[C*(LiF)]
 Deg. of freedom     1
 Full point group                 C*V     NOp   4
 Largest Abelian subgroup         C2V     NOp   4
 Largest concise Abelian subgroup C1      NOp   1
                         Standard orientation:                         
 ---------------------------------------------------------------------
 Center     Atomic      Atomic             Coordinates (Angstroms)
 Number     Number       Type             X           Y           Z
 ---------------------------------------------------------------------
      1          3           0        0.000000    0.000000   -1.264200
      2          9           0        0.000000    0.000000    0.421400
 ---------------------------------------------------------------------
 Rotational constants (GHZ):      0.0000000     34.7148372     34.7148372
 Leave Link  202 at Fri May 24 11:35:32 2024, MaxMem=   33554432 cpu:       0.0
 (Enter /programs/64bit/g09/g09-gfortran/bin/l301.exe)
 Standard basis: 6-31+G(d,p) (6D, 7F)
 Ernie: Thresh=  0.10000D-02 Tol=  0.10000D-05 Strict=F.
 There are    20 symmetry adapted basis functions of A1  symmetry.
 There are     2 symmetry adapted basis functions of A2  symmetry.
 There are     8 symmetry adapted basis functions of B1  symmetry.
 There are     8 symmetry adapted basis functions of B2  symmetry.
 Integral buffers will be    131072 words long.
 Raffenetti 2 integral format.
 Two-electron integral symmetry is turned on.
    38 basis functions,    64 primitive gaussians,    38 cartesian basis functions
     6 alpha electrons        6 beta electrons
       nuclear repulsion energy         8.4763791124 Hartrees.
 IExCor=  402 DFT=T Ex+Corr=B3LYP ExCW=0 ScaHFX=  0.200000
 ScaDFX=  0.800000  0.720000  1.000000  0.810000 ScalE2=  1.000000  1.000000
 IRadAn=      0 IRanWt=     -1 IRanGd=            0 ICorTp=0
 NAtoms=    2 NActive=    2 NUniq=    2 SFac= 7.50D-01 NAtFMM=   80 NAOKFM=F Big=F
 Leave Link  301 at Fri May 24 11:35:32 2024, MaxMem=   33554432 cpu:       0.0
 (Enter /programs/64bit/g09/g09-gfortran/bin/l302.exe)
 NPDir=0 NMtPBC=     1 NCelOv=     1 NCel=       1 NClECP=     1 NCelD=      1
         NCelK=      1 NCelE2=     1 NClLst=     1 CellRange=     0.0.
 One-electron integrals computed using PRISM.
 NBasis=    38 RedAO= T  NBF=    20     2     8     8
 NBsUse=    38 1.00D-06 NBFU=    20     2     8     8
 Precomputing XC quadrature grid using
 IXCGrd= 2 IRadAn=           0 IRanWt=          -1 IRanGd=           0 AccXCQ= 1.00D-10.
 NRdTot=     130 NPtTot=       16530 NUsed=       17479 NTot=       17511
 NSgBfM=    38    38    38    38    38 NAtAll=     2     2.
 Leave Link  302 at Fri May 24 11:35:32 2024, MaxMem=   33554432 cpu:       0.1
 (Enter /programs/64bit/g09/g09-gfortran/bin/l303.exe)
 DipDrv:  MaxL=1.
 Leave Link  303 at Fri May 24 11:35:32 2024, MaxMem=   33554432 cpu:       0.0
 (Enter /programs/64bit/g09/g09-gfortran/bin/l401.exe)
 Harris functional with IExCor=  402 diagonalized for initial guess.
 ExpMin= 7.40D-03 ExpMax= 7.00D+03 ExpMxC= 1.05D+03 IAcc=3 IRadAn=         0 AccDes= 0.00D+00
 HarFok:  IExCor=  402 AccDes= 0.00D+00 IRadAn=         0 IDoV= 1
 ScaDFX=  1.000000  1.000000  1.000000  1.000000
 FoFCou: FMM=F IPFlag=           0 FMFlag=      100000 FMFlg1=           0
         NFxFlg=           0 DoJE=T BraDBF=F KetDBF=T FulRan=T
         Omega=  0.000000  0.000000  1.000000  0.000000  0.000000 ICntrl=     500 IOpCl=  0
         NMat0=    1 NMatS0=    1 NMatT0=    0 NMatD0=    1 NMtDS0=    0 NMtDT0=    0
         I1Cent=           4 NGrid=           0.
 Petite list used in FoFCou.
 Harris En= -107.511950061451    
 Initial guess orbital symmetries:
       Occupied  (SG) (SG) (SG) (SG) (PI) (PI)
       Virtual   (SG) (PI) (PI) (SG) (SG) (PI) (PI) (SG) (PI) (PI)
                 (SG) (SG) (PI) (PI) (SG) (DLTA) (DLTA) (PI) (PI)
                 (SG) (SG) (SG) (SG) (PI) (PI) (DLTA) (DLTA) (SG)
                 (PI) (PI) (SG) (SG)
 The electronic state of the initial guess is 1-SG.
 Leave Link  401 at Fri May 24 11:35:33 2024, MaxMem=   33554432 cpu:       0.1
 (Enter /programs/64bit/g09/g09-gfortran/bin/l502.exe)
 Closed shell SCF:
 Requested convergence on RMS density matrix=1.00D-08 within 128 cycles.
 Requested convergence on MAX density matrix=1.00D-06.
 Requested convergence on             energy=1.00D-06.
 No special actions if energy rises.
 Using DIIS extrapolation, IDIIS=  1040.
 Integral symmetry usage will be decided dynamically.
        17448 words used for storage of precomputed grid.
 Keep R1 ints in memory in canonical form, NReq=1174419.
 IEnd=       40464 IEndB=       40464 NGot=    33554432 MDV=    33257152
 LenX=    33257152 LenY=    33255267
 Symmetry not used in FoFDir.
 MinBra= 0 MaxBra= 2 Meth= 1.
 IRaf=       0 NMat=   1 IRICut=       1 DoRegI=T DoRafI=F ISym2E= 0 JSym2E=0.

 Cycle   1  Pass 1  IDiag  1:
 E= -107.341360683849    
 DIIS: error= 4.61D-02 at cycle   1 NSaved=   1.
 NSaved= 1 IEnMin= 1 EnMin= -107.341360683849     IErMin= 1 ErrMin= 4.61D-02
 ErrMax= 4.61D-02 EMaxC= 1.00D-01 BMatC= 1.19D-01 BMatP= 1.19D-01
 IDIUse=3 WtCom= 5.39D-01 WtEn= 4.61D-01
 Coeff-Com:  0.100D+01
 Coeff-En:   0.100D+01
 Coeff:      0.100D+01
 Gap=     0.000 Goal=   None    Shift=    0.000
 GapD=    0.000 DampG=0.250 DampE=0.500 DampFc=0.2500 IDamp=-1.
 Damping current iteration by 2.50D-01
 RMSDP=2.05D-02 MaxDP=2.28D-01              OVMax= 4.00D-01

 Cycle   2  Pass 1  IDiag  1:
 E= -107.349130890387     Delta-E=       -0.007770206538 Rises=F Damp=T
 DIIS: error= 6.31D-03 at cycle   2 NSaved=   2.
 NSaved= 2 IEnMin= 2 EnMin= -107.349130890387     IErMin= 2 ErrMin= 6.31D-03
 ErrMax= 6.31D-03 EMaxC= 1.00D-01 BMatC= 1.94D-03 BMatP= 1.19D-01
 IDIUse=3 WtCom= 9.37D-01 WtEn= 6.31D-02
 Coeff-Com: -0.502D-01 0.105D+01
 Coeff-En:   0.441D+00 0.559D+00
 Coeff:     -0.192D-01 0.102D+01
 Gap=     0.181 Goal=   None    Shift=    0.000
 RMSDP=2.93D-03 MaxDP=3.30D-02 DE=-7.77D-03 OVMax= 3.52D-01

 Cycle   3  Pass 1  IDiag  1:
 E= -107.429407983379     Delta-E=       -0.080277092992 Rises=F Damp=F
 DIIS: error= 8.98D-03 at cycle   3 NSaved=   3.
 NSaved= 3 IEnMin= 3 EnMin= -107.429407983379     IErMin= 2 ErrMin= 6.31D-03
 ErrMax= 8.98D-03 EMaxC= 1.00D-01 BMatC= 3.77D-03 BMatP= 1.94D-03
 IDIUse=3 WtCom= 9.55D-02 WtEn= 9.05D-01
 Coeff-Com: -0.181D+00 0.210D+00 0.971D+00
 Coeff-En:   0.000D+00 0.000D+00 0.100D+01
 Coeff:     -0.173D-01 0.201D-01 0.997D+00
 Gap=     0.176 Goal=   None    Shift=    0.000
 RMSDP=3.16D-03 MaxDP=3.20D-02 DE=-8.03D-02 OVMax= 5.31D-02

 Cycle   4  Pass 1  IDiag  1:
 E= -107.422811785431     Delta-E=        0.006596197948 Rises=F Damp=F
 DIIS: error= 1.73D-02 at cycle   4 NSaved=   4.
 NSaved= 4 IEnMin= 3 EnMin= -107.429407983379     IErMin= 2 ErrMin= 6.31D-03
 ErrMax= 1.73D-02 EMaxC= 1.00D-01 BMatC= 1.48D-02 BMatP= 1.94D-03
 IDIUse=2 WtCom= 0.00D+00 WtEn= 1.00D+00
 Coeff-En:   0.000D+00 0.000D+00 0.710D+00 0.290D+00
 Coeff:      0.000D+00 0.000D+00 0.710D+00 0.290D+00
 Gap=     0.206 Goal=   None    Shift=    0.000
 RMSDP=1.40D-03 MaxDP=1.73D-02 DE= 6.60D-03 OVMax= 2.57D-02

 Cycle   5  Pass 1  IDiag  1:
 E= -107.432255675212     Delta-E=       -0.009443889781 Rises=F Damp=F
 DIIS: error= 3.30D-03 at cycle   5 NSaved=   5.
 NSaved= 5 IEnMin= 5 EnMin= -107.432255675212     IErMin= 5 ErrMin= 3.30D-03
 ErrMax= 3.30D-03 EMaxC= 1.00D-01 BMatC= 5.53D-04 BMatP= 1.94D-03
 IDIUse=3 WtCom= 9.67D-01 WtEn= 3.30D-02
 Coeff-Com:  0.225D-01-0.211D-01 0.124D-01-0.154D+00 0.114D+01
 Coeff-En:   0.000D+00 0.000D+00 0.104D+00 0.000D+00 0.896D+00
 Coeff:      0.218D-01-0.204D-01 0.154D-01-0.149D+00 0.113D+01
 Gap=     0.213 Goal=   None    Shift=    0.000
 RMSDP=3.23D-04 MaxDP=3.91D-03 DE=-9.44D-03 OVMax= 5.71D-03

 Cycle   6  Pass 1  IDiag  1:
 E= -107.432624053630     Delta-E=       -0.000368378418 Rises=F Damp=F
 DIIS: error= 2.37D-04 at cycle   6 NSaved=   6.
 NSaved= 6 IEnMin= 6 EnMin= -107.432624053630     IErMin= 6 ErrMin= 2.37D-04
 ErrMax= 2.37D-04 EMaxC= 1.00D-01 BMatC= 2.34D-06 BMatP= 5.53D-04
 IDIUse=3 WtCom= 9.98D-01 WtEn= 2.37D-03
 Coeff-Com:  0.379D-02-0.214D-02 0.105D-01-0.412D-01 0.244D+00 0.785D+00
 Coeff-En:   0.000D+00 0.000D+00 0.000D+00 0.000D+00 0.000D+00 0.100D+01
 Coeff:      0.378D-02-0.214D-02 0.105D-01-0.411D-01 0.243D+00 0.786D+00
 Gap=     0.214 Goal=   None    Shift=    0.000
 RMSDP=2.89D-05 MaxDP=2.21D-04 DE=-3.68D-04 OVMax= 4.35D-04

 Cycle   7  Pass 1  IDiag  1:
 E= -107.432625908027     Delta-E=       -0.000001854398 Rises=F Damp=F
 DIIS: error= 3.00D-05 at cycle   7 NSaved=   7.
 NSaved= 7 IEnMin= 7 EnMin= -107.432625908027     IErMin= 7 ErrMin= 3.00D-05
 ErrMax= 3.00D-05 EMaxC= 1.00D-01 BMatC= 4.49D-08 BMatP= 2.34D-06
 IDIUse=1 WtCom= 1.00D+00 WtEn= 0.00D+00
 Coeff-Com:  0.255D-05-0.234D-03 0.145D-02 0.170D-02-0.127D-01-0.291D-01
 Coeff-Com:  0.104D+01
 Coeff:      0.255D-05-0.234D-03 0.145D-02 0.170D-02-0.127D-01-0.291D-01
 Coeff:      0.104D+01
 Gap=     0.214 Goal=   None    Shift=    0.000
 RMSDP=3.72D-06 MaxDP=3.21D-05 DE=-1.85D-06 OVMax= 5.96D-05

 Cycle   8  Pass 1  IDiag  1:
 E= -107.432625941826     Delta-E=       -0.000000033799 Rises=F Damp=F
 DIIS: error= 2.98D-06 at cycle   8 NSaved=   8.
 NSaved= 8 IEnMin= 8 EnMin= -107.432625941826     IErMin= 8 ErrMin= 2.98D-06
 ErrMax= 2.98D-06 EMaxC= 1.00D-01 BMatC= 4.27D-10 BMatP= 4.49D-08
 IDIUse=1 WtCom= 1.00D+00 WtEn= 0.00D+00
 Coeff-Com:  0.589D-05 0.202D-06-0.383D-04-0.502D-04 0.460D-03-0.167D-02
 Coeff-Com: -0.121D+00 0.112D+01
 Coeff:      0.589D-05 0.202D-06-0.383D-04-0.502D-04 0.460D-03-0.167D-02
 Coeff:     -0.121D+00 0.112D+01
 Gap=     0.214 Goal=   None    Shift=    0.000
 RMSDP=4.06D-07 MaxDP=3.46D-06 DE=-3.38D-08 OVMax= 7.18D-06

 Cycle   9  Pass 1  IDiag  1:
 E= -107.432625942159     Delta-E=       -0.000000000333 Rises=F Damp=F
 DIIS: error= 9.17D-09 at cycle   9 NSaved=   9.
 NSaved= 9 IEnMin= 9 EnMin= -107.432625942159     IErMin= 9 ErrMin= 9.17D-09
 ErrMax= 9.17D-09 EMaxC= 1.00D-01 BMatC= 2.11D-15 BMatP= 4.27D-10
 IDIUse=1 WtCom= 1.00D+00 WtEn= 0.00D+00
 Coeff-Com:  0.518D-06 0.408D-06-0.633D-05-0.959D-05 0.680D-04 0.184D-03
 Coeff-Com: -0.226D-02-0.203D-01 0.102D+01
 Coeff:      0.518D-06 0.408D-06-0.633D-05-0.959D-05 0.680D-04 0.184D-03
 Coeff:     -0.226D-02-0.203D-01 0.102D+01
 Gap=     0.214 Goal=   None    Shift=    0.000
 RMSDP=4.91D-09 MaxDP=6.13D-08 DE=-3.33D-10 OVMax= 1.41D-07

 SCF Done:  E(RB3LYP) =  -107.432625942     A.U. after    9 cycles
             Convg  =    0.4915D-08             -V/T =  2.0091
 KE= 1.064684733496D+02 PE=-2.743172678273D+02 EE= 5.193978942310D+01
 Leave Link  502 at Fri May 24 11:35:33 2024, MaxMem=   33554432 cpu:       0.4
 (Enter /programs/64bit/g09/g09-gfortran/bin/l601.exe)
 Copying SCF densities to generalized density rwf, IOpCl= 0 IROHF=0.

 **********************************************************************

            Population analysis using the SCF density.

 **********************************************************************

 Orbital symmetries:
       Occupied  (SG) (SG) (SG) (SG) (PI) (PI)
       Virtual   (SG) (PI) (PI) (SG) (SG) (PI) (PI) (SG) (SG) (PI)
                 (PI) (SG) (PI) (PI) (SG) (DLTA) (DLTA) (PI) (PI)
                 (SG) (SG) (SG) (SG) (PI) (PI) (DLTA) (DLTA) (SG)
                 (PI) (PI) (SG) (SG)
 The electronic state is 1-SG.
 Alpha  occ. eigenvalues --  -24.54700  -2.02124  -0.99122  -0.28709  -0.27068
 Alpha  occ. eigenvalues --   -0.27068
 Alpha virt. eigenvalues --   -0.05656   0.00199   0.00199   0.00376   0.01841
 Alpha virt. eigenvalues --    0.03341   0.03341   0.06338   0.14718   0.15560
 Alpha virt. eigenvalues --    0.15560   0.26281   0.30957   0.30957   0.31722
 Alpha virt. eigenvalues --    0.46386   0.46389   0.57446   0.57446   0.61427
 Alpha virt. eigenvalues --    1.18141   1.35933   1.61631   1.63184   1.63184
 Alpha virt. eigenvalues --    1.98767   1.98781   2.01700   2.10327   2.10327
 Alpha virt. eigenvalues --    2.16989   4.94070
          Condensed to atoms (all electrons):
              1          2
     1  Li   2.131901   0.185976
     2  F    0.185976   9.496148
 Mulliken atomic charges:
              1
     1  Li   0.682123
     2  F   -0.682123
 Sum of Mulliken atomic charges =  -0.00000
 Mulliken charges with hydrogens summed into heavy atoms:
              1
     1  Li   0.682123
     2  F   -0.682123
 Sum of Mulliken charges with hydrogens summed into heavy atoms =  -0.00000
 Electronic spatial extent (au):  <R**2>=             34.5578
 Charge=             -0.0000 electrons
 Dipole moment (field-independent basis, Debye):
    X=              0.0000    Y=              0.0000    Z=             -6.8622  Tot=              6.8622
 Quadrupole moment (field-independent basis, Debye-Ang):
   XX=             -7.7285   YY=             -7.7285   ZZ=             -0.3184
   XY=              0.0000   XZ=              0.0000   YZ=              0.0000
 Traceless Quadrupole moment (field-independent basis, Debye-Ang):
   XX=             -2.4700   YY=             -2.4700   ZZ=              4.9401
   XY=              0.0000   XZ=              0.0000   YZ=              0.0000
 Octapole moment (field-independent basis, Debye-Ang**2):
  XXX=              0.0000  YYY=              0.0000  ZZZ=            -14.7195  XYY=              0.0000
  XXY=              0.0000  XXZ=             -1.5264  XZZ=              0.0000  YZZ=              0.0000
  YYZ=             -1.5264  XYZ=              0.0000
 Hexadecapole moment (field-independent basis, Debye-Ang**3):
 XXXX=            -10.4946 YYYY=            -10.4946 ZZZZ=            -11.3540 XXXY=              0.0000
 XXXZ=              0.0000 YYYX=              0.0000 YYYZ=              0.0000 ZZZX=              0.0000
 ZZZY=              0.0000 XXYY=             -3.4982 XXZZ=             -5.6442 YYZZ=             -5.6442
 XXYZ=              0.0000 YYXZ=              0.0000 ZZXY=              0.0000
 N-N= 8.476379112441D+00 E-N=-2.743172680597D+02  KE= 1.064684733496D+02
 Symmetry A1   KE= 9.496713169459D+01
 Symmetry A2   KE=-1.269237485099D-51
 Symmetry B1   KE= 5.750670827486D+00
 Symmetry B2   KE= 5.750670827486D+00
 No NMR shielding tensors so no spin-rotation constants.
 Leave Link  601 at Fri May 24 11:35:33 2024, MaxMem=   33554432 cpu:       0.0
 (Enter /programs/64bit/g09/g09-gfortran/bin/l701.exe)
 Compute integral first derivatives.
 ... and contract with generalized density number  0.
 Leave Link  701 at Fri May 24 11:35:33 2024, MaxMem=   33554432 cpu:       0.0
 (Enter /programs/64bit/g09/g09-gfortran/bin/l702.exe)
 L702 exits ... SP integral derivatives will be done elsewhere.
 Leave Link  702 at Fri May 24 11:35:33 2024, MaxMem=   33554432 cpu:       0.0
 (Enter /programs/64bit/g09/g09-gfortran/bin/l703.exe)
 Compute integral first derivatives, UseDBF=F ICtDFT=           0.
 Integral derivatives from FoFDir, PRISM(SPDF).
 Calling FoFJK, ICntrl=      2127 FMM=F ISym2X=1 I1Cent= 0 IOpClX= 0 NMat=1 NMatS=1 NMatT=0.
 FoFCou: FMM=F IPFlag=           0 FMFlag=      100000 FMFlg1=         800
         NFxFlg=           0 DoJE=F BraDBF=F KetDBF=F FulRan=T
         Omega=  0.000000  0.000000  1.000000  0.000000  0.000000 ICntrl=    2127 IOpCl=  0
         NMat0=    1 NMatS0=    1 NMatT0=    0 NMatD0=    1 NMtDS0=    0 NMtDT0=    0
         I1Cent=           0 NGrid=           0.
 Petite list used in FoFCou.
 Leave Link  703 at Fri May 24 11:35:33 2024, MaxMem=   33554432 cpu:       0.2
 (Enter /programs/64bit/g09/g09-gfortran/bin/l716.exe)
 Dipole        = 0.00000000D+00 0.00000000D+00-2.69979983D+00
 ***** Axes restored to original set *****
 -------------------------------------------------------------------
 Center     Atomic                   Forces (Hartrees/Bohr)
 Number     Number              X              Y              Z
 -------------------------------------------------------------------
      1        3          -0.000000000   -0.000000000    0.022105358
      2        9          -0.000000000   -0.000000000   -0.022105358
 -------------------------------------------------------------------
 Cartesian Forces:  Max     0.022105358 RMS     0.012762534
 Leave Link  716 at Fri May 24 11:35:33 2024, MaxMem=   33554432 cpu:       0.0
 (Enter /programs/64bit/g09/g09-gfortran/bin/l103.exe)

 GradGradGradGradGradGradGradGradGradGradGradGradGradGradGradGradGradGrad
 Berny optimization.
 Internal  Forces:  Max     0.022105358 RMS     0.022105358
 Search for a local minimum.
 Step number   1 out of a maximum of   20
 All quantities printed in internal units (Hartrees-Bohrs-Radians)
 RMS Force = .22105D-01 SwitMx=.10000D-02 MixMth= 1
 Mixed Optimization -- RFO/linear search
 Second derivative matrix not updated -- first step.
 The second derivative matrix:
                          R1
           R1           0.18715
     Eigenvalues ---    0.18715
 RFO step:  Lambda=-2.57553782D-03 EMin= 1.87150598D-01
 Linear search not attempted -- first point.
 Iteration  1 RMS(Cart)=  0.08238637 RMS(Int)=  0.00000000
 Iteration  2 RMS(Cart)=  0.00000000 RMS(Int)=  0.00000000
 ClnCor:  largest displacement from symmetrization is 1.25D-16 for atom     1.
 Variable       Old X    -DE/DX   Delta X   Delta X   Delta X     New X
                                 (Linear)    (Quad)   (Total)
    R1        3.18532  -0.02211   0.00000  -0.11651  -0.11651   3.06881
         Item               Value     Threshold  Converged?
 Maximum Force            0.022105     0.000450     NO 
 RMS     Force            0.022105     0.000300     NO 
 Maximum Displacement     0.058256     0.001800     NO 
 RMS     Displacement     0.082386     0.001200     NO 
 Predicted change in Energy=-1.305250D-03
 GradGradGradGradGradGradGradGradGradGradGradGradGradGradGradGradGradGrad

 Leave Link  103 at Fri May 24 11:35:33 2024, MaxMem=   33554432 cpu:       0.0
 (Enter /programs/64bit/g09/g09-gfortran/bin/l202.exe)
                          Input orientation:                          
 ---------------------------------------------------------------------
 Center     Atomic      Atomic             Coordinates (Angstroms)
 Number     Number       Type             X           Y           Z
 ---------------------------------------------------------------------
      1          3           0        0.000000    0.000000    0.030828
      2          9           0        0.000000    0.000000    1.654772
 ---------------------------------------------------------------------
 Stoichiometry    FLi
 Framework group  C*V[C*(LiF)]
 Deg. of freedom     1
 Full point group                 C*V     NOp   4
 Largest Abelian subgroup         C2V     NOp   4
 Largest concise Abelian subgroup C1      NOp   1
                         Standard orientation:                         
 ---------------------------------------------------------------------
 Center     Atomic      Atomic             Coordinates (Angstroms)
 Number     Number       Type             X           Y           Z
 ---------------------------------------------------------------------
      1          3           0        0.000000    0.000000   -1.217958
      2          9           0        0.000000    0.000000    0.405986
 ---------------------------------------------------------------------
 Rotational constants (GHZ):      0.0000000     37.4008773     37.4008773
 Leave Link  202 at Fri May 24 11:35:33 2024, MaxMem=   33554432 cpu:       0.0
 (Enter /programs/64bit/g09/g09-gfortran/bin/l301.exe)
 Standard basis: 6-31+G(d,p) (6D, 7F)
 Ernie: Thresh=  0.10000D-02 Tol=  0.10000D-05 Strict=F.
 There are    20 symmetry adapted basis functions of A1  symmetry.
 There are     2 symmetry adapted basis functions of A2  symmetry.
 There are     8 symmetry adapted basis functions of B1  symmetry.
 There are     8 symmetry adapted basis functions of B2  symmetry.
 Integral buffers will be    131072 words long.
 Raffenetti 2 integral format.
 Two-electron integral symmetry is turned on.
    38 basis functions,    64 primitive gaussians,    38 cartesian basis functions
     6 alpha electrons        6 beta electrons
       nuclear repulsion energy         8.7981973812 Hartrees.
 IExCor=  402 DFT=T Ex+Corr=B3LYP ExCW=0 ScaHFX=  0.200000
 ScaDFX=  0.800000  0.720000  1.000000  0.810000 ScalE2=  1.000000  1.000000
 IRadAn=      0 IRanWt=     -1 IRanGd=            0 ICorTp=0
 NAtoms=    2 NActive=    2 NUniq=    2 SFac= 7.50D-01 NAtFMM=   80 NAOKFM=F Big=F
 Leave Link  301 at Fri May 24 11:35:33 2024, MaxMem=   33554432 cpu:       0.0
 (Enter /programs/64bit/g09/g09-gfortran/bin/l302.exe)
 NPDir=0 NMtPBC=     1 NCelOv=     1 NCel=       1 NClECP=     1 NCelD=      1
         NCelK=      1 NCelE2=     1 NClLst=     1 CellRange=     0.0.
 One-electron integrals computed using PRISM.
 NBasis=    38 RedAO= T  NBF=    20     2     8     8
 NBsUse=    38 1.00D-06 NBFU=    20     2     8     8
 Precomputing XC quadrature grid using
 IXCGrd= 2 IRadAn=           0 IRanWt=          -1 IRanGd=           0 AccXCQ= 1.00D-10.
 NRdTot=     130 NPtTot=       16530 NUsed=       17479 NTot=       17511
 NSgBfM=    38    38    38    38    38 NAtAll=     2     2.
 Leave Link  302 at Fri May 24 11:35:34 2024, MaxMem=   33554432 cpu:       0.1
 (Enter /programs/64bit/g09/g09-gfortran/bin/l303.exe)
 DipDrv:  MaxL=1.
 Leave Link  303 at Fri May 24 11:35:34 2024, MaxMem=   33554432 cpu:       0.0
 (Enter /programs/64bit/g09/g09-gfortran/bin/l401.exe)
 Initial guess read from the read-write file.
 B after Tr=     0.000000    0.000000    0.000000
         Rot=    1.000000    0.000000    0.000000    0.000000 Ang=   0.00 deg.
 Guess basis will be translated and rotated to current coordinates.
 Initial guess orbital symmetries:
       Occupied  (SG) (SG) (SG) (SG) (PI) (PI)
       Virtual   (SG) (PI) (PI) (SG) (SG) (PI) (PI) (SG) (SG) (PI)
                 (PI) (SG) (PI) (PI) (SG) (DLTA) (DLTA) (PI) (PI)
                 (SG) (SG) (SG) (SG) (PI) (PI) (DLTA) (DLTA) (SG)
                 (PI) (PI) (SG) (SG)
 The electronic state of the initial guess is 1-SG.
 Generating alternative initial guess.
 Harris functional with IExCor=  402 diagonalized for initial guess.
 ExpMin= 7.40D-03 ExpMax= 7.00D+03 ExpMxC= 1.05D+03 IAcc=3 IRadAn=         0 AccDes= 0.00D+00
 HarFok:  IExCor=  402 AccDes= 0.00D+00 IRadAn=         0 IDoV= 1
 ScaDFX=  1.000000  1.000000  1.000000  1.000000
 FoFCou: FMM=F IPFlag=           0 FMFlag=      100000 FMFlg1=           0
         NFxFlg=           0 DoJE=T BraDBF=F KetDBF=T FulRan=T
         Omega=  0.000000  0.000000  1.000000  0.000000  0.000000 ICntrl=     500 IOpCl=  0
         NMat0=    1 NMatS0=    1 NMatT0=    0 NMatD0=    1 NMtDS0=    0 NMtDT0=    0
         I1Cent=           4 NGrid=           0.
 Petite list used in FoFCou.
 Harris En= -107.513486335790    
 Leave Link  401 at Fri May 24 11:35:34 2024, MaxMem=   33554432 cpu:       0.0
 (Enter /programs/64bit/g09/g09-gfortran/bin/l502.exe)
 Closed shell SCF:
 Requested convergence on RMS density matrix=1.00D-08 within 128 cycles.
 Requested convergence on MAX density matrix=1.00D-06.
 Requested convergence on             energy=1.00D-06.
 No special actions if energy rises.
 Using DIIS extrapolation, IDIIS=  1040.
 Integral symmetry usage will be decided dynamically.
        17448 words used for storage of precomputed grid.
 Keep R1 ints in memory in canonical form, NReq=1174419.
 IEnd=       40464 IEndB=       40464 NGot=    33554432 MDV=    33257152
 LenX=    33257152 LenY=    33255267
 Symmetry not used in FoFDir.
 MinBra= 0 MaxBra= 2 Meth= 1.
 IRaf=       0 NMat=   1 IRICut=       1 DoRegI=T DoRafI=F ISym2E= 0 JSym2E=0.

 Cycle   1  Pass 1  IDiag  1:
 E= -107.434348067166    
 DIIS: error= 1.28D-03 at cycle   1 NSaved=   1.
 NSaved= 1 IEnMin= 1 EnMin= -107.434348067166     IErMin= 1 ErrMin= 1.28D-03
 ErrMax= 1.28D-03 EMaxC= 1.00D-01 BMatC= 9.11D-05 BMatP= 9.11D-05
 IDIUse=3 WtCom= 9.87D-01 WtEn= 1.28D-02
 Coeff-Com:  0.100D+01
 Coeff-En:   0.100D+01
 Coeff:      0.100D+01
 Gap=     0.230 Goal=   None    Shift=    0.000
 GapD=    0.230 DampG=1.000 DampE=1.000 DampFc=1.0000 IDamp=-1.
 RMSDP=1.10D-03 MaxDP=1.26D-02              OVMax= 1.01D-02

 Cycle   2  Pass 1  IDiag  1:
 E= -107.434492419253     Delta-E=       -0.000144352087 Rises=F Damp=F
 DIIS: error= 1.03D-03 at cycle   2 NSaved=   2.
 NSaved= 2 IEnMin= 2 EnMin= -107.434492419253     IErMin= 2 ErrMin= 1.03D-03
 ErrMax= 1.03D-03 EMaxC= 1.00D-01 BMatC= 4.79D-05 BMatP= 9.11D-05
 IDIUse=3 WtCom= 9.90D-01 WtEn= 1.03D-02
 Coeff-Com:  0.380D+00 0.620D+00
 Coeff-En:   0.000D+00 0.100D+01
 Coeff:      0.377D+00 0.623D+00
 Gap=     0.220 Goal=   None    Shift=    0.000
 RMSDP=1.79D-04 MaxDP=2.14D-03 DE=-1.44D-04 OVMax= 3.05D-03

 Cycle   3  Pass 1  IDiag  1:
 E= -107.434506357648     Delta-E=       -0.000013938395 Rises=F Damp=F
 DIIS: error= 7.21D-04 at cycle   3 NSaved=   3.
 NSaved= 3 IEnMin= 3 EnMin= -107.434506357648     IErMin= 3 ErrMin= 7.21D-04
 ErrMax= 7.21D-04 EMaxC= 1.00D-01 BMatC= 2.83D-05 BMatP= 4.79D-05
 IDIUse=3 WtCom= 9.93D-01 WtEn= 7.21D-03
 Coeff-Com:  0.542D-01 0.420D+00 0.526D+00
 Coeff-En:   0.000D+00 0.383D+00 0.617D+00
 Coeff:      0.538D-01 0.420D+00 0.527D+00
 Gap=     0.221 Goal=   None    Shift=    0.000
 RMSDP=8.07D-05 MaxDP=1.02D-03 DE=-1.39D-05 OVMax= 1.40D-03

 Cycle   4  Pass 1  IDiag  1:
 E= -107.434524657928     Delta-E=       -0.000018300280 Rises=F Damp=F
 DIIS: error= 7.09D-05 at cycle   4 NSaved=   4.
 NSaved= 4 IEnMin= 4 EnMin= -107.434524657928     IErMin= 4 ErrMin= 7.09D-05
 ErrMax= 7.09D-05 EMaxC= 1.00D-01 BMatC= 2.27D-07 BMatP= 2.83D-05
 IDIUse=1 WtCom= 1.00D+00 WtEn= 0.00D+00
 Coeff-Com: -0.111D-01 0.276D-01 0.108D+00 0.876D+00
 Coeff:     -0.111D-01 0.276D-01 0.108D+00 0.876D+00
 Gap=     0.221 Goal=   None    Shift=    0.000
 RMSDP=1.61D-05 MaxDP=1.34D-04 DE=-1.83D-05 OVMax= 2.11D-04

 Cycle   5  Pass 1  IDiag  1:
 E= -107.434524849367     Delta-E=       -0.000000191439 Rises=F Damp=F
 DIIS: error= 5.45D-06 at cycle   5 NSaved=   5.
 NSaved= 5 IEnMin= 5 EnMin= -107.434524849367     IErMin= 5 ErrMin= 5.45D-06
 ErrMax= 5.45D-06 EMaxC= 1.00D-01 BMatC= 2.07D-09 BMatP= 2.27D-07
 IDIUse=1 WtCom= 1.00D+00 WtEn= 0.00D+00
 Coeff-Com:  0.264D-03-0.421D-02-0.152D-01-0.204D-01 0.104D+01
 Coeff:      0.264D-03-0.421D-02-0.152D-01-0.204D-01 0.104D+01
 Gap=     0.221 Goal=   None    Shift=    0.000
 RMSDP=1.40D-06 MaxDP=1.79D-05 DE=-1.91D-07 OVMax= 4.35D-05

 Cycle   6  Pass 1  IDiag  1:
 E= -107.434524851558     Delta-E=       -0.000000002192 Rises=F Damp=F
 DIIS: error= 8.44D-07 at cycle   6 NSaved=   6.
 NSaved= 6 IEnMin= 6 EnMin= -107.434524851558     IErMin= 6 ErrMin= 8.44D-07
 ErrMax= 8.44D-07 EMaxC= 1.00D-01 BMatC= 3.26D-11 BMatP= 2.07D-09
 IDIUse=1 WtCom= 1.00D+00 WtEn= 0.00D+00
 Coeff-Com:  0.969D-04-0.486D-03-0.150D-03-0.897D-02-0.148D-01 0.102D+01
 Coeff:      0.969D-04-0.486D-03-0.150D-03-0.897D-02-0.148D-01 0.102D+01
 Gap=     0.221 Goal=   None    Shift=    0.000
 RMSDP=1.61D-07 MaxDP=1.63D-06 DE=-2.19D-09 OVMax= 3.79D-06

 Cycle   7  Pass 1  IDiag  1:
 E= -107.434524851589     Delta-E=       -0.000000000030 Rises=F Damp=F
 DIIS: error= 2.52D-08 at cycle   7 NSaved=   7.
 NSaved= 7 IEnMin= 7 EnMin= -107.434524851589     IErMin= 7 ErrMin= 2.52D-08
 ErrMax= 2.52D-08 EMaxC= 1.00D-01 BMatC= 9.83D-15 BMatP= 3.26D-11
 IDIUse=1 WtCom= 1.00D+00 WtEn= 0.00D+00
 Coeff-Com: -0.764D-05 0.741D-04 0.925D-04 0.747D-03-0.482D-02-0.934D-01
 Coeff-Com:  0.110D+01
 Coeff:     -0.764D-05 0.741D-04 0.925D-04 0.747D-03-0.482D-02-0.934D-01
 Coeff:      0.110D+01
 Gap=     0.221 Goal=   None    Shift=    0.000
 RMSDP=1.04D-08 MaxDP=1.18D-07 DE=-3.04D-11 OVMax= 3.38D-07

 Cycle   8  Pass 1  IDiag  1:
 E= -107.434524851589     Delta-E=       -0.000000000000 Rises=F Damp=F
 DIIS: error= 1.20D-09 at cycle   8 NSaved=   8.
 NSaved= 8 IEnMin= 8 EnMin= -107.434524851589     IErMin= 8 ErrMin= 1.20D-09
 ErrMax= 1.20D-09 EMaxC= 1.00D-01 BMatC= 7.20D-17 BMatP= 9.83D-15
 IDIUse=1 WtCom= 1.00D+00 WtEn= 0.00D+00
 Coeff-Com:  0.226D-06-0.217D-05-0.584D-05-0.265D-04 0.312D-03 0.277D-02
 Coeff-Com: -0.570D-01 0.105D+01
 Coeff:      0.226D-06-0.217D-05-0.584D-05-0.265D-04 0.312D-03 0.277D-02
 Coeff:     -0.570D-01 0.105D+01
 Gap=     0.221 Goal=   None    Shift=    0.000
 RMSDP=4.58D-10 MaxDP=3.88D-09 DE=-1.42D-14 OVMax= 8.90D-09

 SCF Done:  E(RB3LYP) =  -107.434524852     A.U. after    8 cycles
             Convg  =    0.4585D-09             -V/T =  2.0087
 KE= 1.065096925323D+02 PE=-2.749678969150D+02 EE= 5.222548214979D+01
 Leave Link  502 at Fri May 24 11:35:34 2024, MaxMem=   33554432 cpu:       0.4
 (Enter /programs/64bit/g09/g09-gfortran/bin/l701.exe)
 Compute integral first derivatives.
 ... and contract with generalized density number  0.
 Leave Link  701 at Fri May 24 11:35:34 2024, MaxMem=   33554432 cpu:       0.1
 (Enter /programs/64bit/g09/g09-gfortran/bin/l702.exe)
 L702 exits ... SP integral derivatives will be done elsewhere.
 Leave Link  702 at Fri May 24 11:35:34 2024, MaxMem=   33554432 cpu:       0.0
 (Enter /programs/64bit/g09/g09-gfortran/bin/l703.exe)
 Compute integral first derivatives, UseDBF=F ICtDFT=           0.
 Integral derivatives from FoFDir, PRISM(SPDF).
 Calling FoFJK, ICntrl=      2127 FMM=F ISym2X=1 I1Cent= 0 IOpClX= 0 NMat=1 NMatS=1 NMatT=0.
 FoFCou: FMM=F IPFlag=           0 FMFlag=      100000 FMFlg1=         800
         NFxFlg=           0 DoJE=F BraDBF=F KetDBF=F FulRan=T
         Omega=  0.000000  0.000000  1.000000  0.000000  0.000000 ICntrl=    2127 IOpCl=  0
         NMat0=    1 NMatS0=    1 NMatT0=    0 NMatD0=    1 NMtDS0=    0 NMtDT0=    0
         I1Cent=           0 NGrid=           0.
 Petite list used in FoFCou.
 Leave Link  703 at Fri May 24 11:35:34 2024, MaxMem=   33554432 cpu:       0.0
 (Enter /programs/64bit/g09/g09-gfortran/bin/l716.exe)
 Dipole        = 0.00000000D+00 0.00000000D+00-2.59427590D+00
 ***** Axes restored to original set *****
 -------------------------------------------------------------------
 Center     Atomic                   Forces (Hartrees/Bohr)
 Number     Number              X              Y              Z
 -------------------------------------------------------------------
      1        3          -0.000000000   -0.000000000    0.009792977
      2        9          -0.000000000   -0.000000000   -0.009792977
 -------------------------------------------------------------------
 Cartesian Forces:  Max     0.009792977 RMS     0.005653978
 Leave Link  716 at Fri May 24 11:35:35 2024, MaxMem=   33554432 cpu:       0.0
 (Enter /programs/64bit/g09/g09-gfortran/bin/l103.exe)

 GradGradGradGradGradGradGradGradGradGradGradGradGradGradGradGradGradGrad
 Berny optimization.
 Using GEDIIS/GDIIS optimizer.
 Internal  Forces:  Max     0.009792977 RMS     0.009792977
 Search for a local minimum.
 Step number   2 out of a maximum of   20
 All quantities printed in internal units (Hartrees-Bohrs-Radians)
 RMS Force = .97930D-02 SwitMx=.10000D-02 MixMth= 1
 Mixed Optimization -- RFO/linear search
 Update second derivatives using D2CorX and points    1    2
 DE= -1.90D-03 DEPred=-1.31D-03 R= 1.45D+00
 SS=  1.41D+00  RLast= 1.17D-01 DXNew= 5.0454D-01 3.4954D-01
 Trust test= 1.45D+00 RLast= 1.17D-01 DXMaxT set to 3.50D-01
 The second derivative matrix:
                          R1
           R1           0.10567
 Use linear search instead of GDIIS.
     Eigenvalues ---    0.10567
 RFO step:  Lambda= 0.00000000D+00 EMin= 1.05674850D-01
 Quartic linear search produced a step of  0.61560.
 Iteration  1 RMS(Cart)=  0.05071737 RMS(Int)=  0.00000000
 Iteration  2 RMS(Cart)=  0.00000000 RMS(Int)=  0.00000000
 ClnCor:  largest displacement from symmetrization is 0.00D+00 for atom     0.
 Variable       Old X    -DE/DX   Delta X   Delta X   Delta X     New X
                                 (Linear)    (Quad)   (Total)
    R1        3.06881  -0.00979  -0.07173   0.00000  -0.07173   2.99709
         Item               Value     Threshold  Converged?
 Maximum Force            0.009793     0.000450     NO 
 RMS     Force            0.009793     0.000300     NO 
 Maximum Displacement     0.035863     0.001800     NO 
 RMS     Displacement     0.050717     0.001200     NO 
 Predicted change in Energy=-4.305809D-04
 GradGradGradGradGradGradGradGradGradGradGradGradGradGradGradGradGradGrad

 Leave Link  103 at Fri May 24 11:35:35 2024, MaxMem=   33554432 cpu:       0.0
 (Enter /programs/64bit/g09/g09-gfortran/bin/l202.exe)
                          Input orientation:                          
 ---------------------------------------------------------------------
 Center     Atomic      Atomic             Coordinates (Angstroms)
 Number     Number       Type             X           Y           Z
 ---------------------------------------------------------------------
      1          3           0        0.000000    0.000000    0.049805
      2          9           0        0.000000    0.000000    1.635795
 ---------------------------------------------------------------------
 Stoichiometry    FLi
 Framework group  C*V[C*(LiF)]
 Deg. of freedom     1
 Full point group                 C*V     NOp   4
 Largest Abelian subgroup         C2V     NOp   4
 Largest concise Abelian subgroup C1      NOp   1
                         Standard orientation:                         
 ---------------------------------------------------------------------
 Center     Atomic      Atomic             Coordinates (Angstroms)
 Number     Number       Type             X           Y           Z
 ---------------------------------------------------------------------
      1          3           0        0.000000    0.000000   -1.189492
      2          9           0        0.000000    0.000000    0.396497
 ---------------------------------------------------------------------
 Rotational constants (GHZ):      0.0000000     39.2124270     39.2124270
 Leave Link  202 at Fri May 24 11:35:35 2024, MaxMem=   33554432 cpu:       0.0
 (Enter /programs/64bit/g09/g09-gfortran/bin/l301.exe)
 Standard basis: 6-31+G(d,p) (6D, 7F)
 Ernie: Thresh=  0.10000D-02 Tol=  0.10000D-05 Strict=F.
 There are    20 symmetry adapted basis functions of A1  symmetry.
 There are     2 symmetry adapted basis functions of A2  symmetry.
 There are     8 symmetry adapted basis functions of B1  symmetry.
 There are     8 symmetry adapted basis functions of B2  symmetry.
 Integral buffers will be    131072 words long.
 Raffenetti 2 integral format.
 Two-electron integral symmetry is turned on.
    38 basis functions,    64 primitive gaussians,    38 cartesian basis functions
     6 alpha electrons        6 beta electrons
       nuclear repulsion energy         9.0087527487 Hartrees.
 IExCor=  402 DFT=T Ex+Corr=B3LYP ExCW=0 ScaHFX=  0.200000
 ScaDFX=  0.800000  0.720000  1.000000  0.810000 ScalE2=  1.000000  1.000000
 IRadAn=      0 IRanWt=     -1 IRanGd=            0 ICorTp=0
 NAtoms=    2 NActive=    2 NUniq=    2 SFac= 7.50D-01 NAtFMM=   80 NAOKFM=F Big=F
 Leave Link  301 at Fri May 24 11:35:35 2024, MaxMem=   33554432 cpu:       0.0
 (Enter /programs/64bit/g09/g09-gfortran/bin/l302.exe)
 NPDir=0 NMtPBC=     1 NCelOv=     1 NCel=       1 NClECP=     1 NCelD=      1
         NCelK=      1 NCelE2=     1 NClLst=     1 CellRange=     0.0.
 One-electron integrals computed using PRISM.
 NBasis=    38 RedAO= T  NBF=    20     2     8     8
 NBsUse=    38 1.00D-06 NBFU=    20     2     8     8
 Precomputing XC quadrature grid using
 IXCGrd= 2 IRadAn=           0 IRanWt=          -1 IRanGd=           0 AccXCQ= 1.00D-10.
 NRdTot=     130 NPtTot=       16530 NUsed=       17479 NTot=       17511
 NSgBfM=    38    38    38    38    38 NAtAll=     2     2.
 Leave Link  302 at Fri May 24 11:35:35 2024, MaxMem=   33554432 cpu:       0.1
 (Enter /programs/64bit/g09/g09-gfortran/bin/l303.exe)
 DipDrv:  MaxL=1.
 Leave Link  303 at Fri May 24 11:35:35 2024, MaxMem=   33554432 cpu:       0.0
 (Enter /programs/64bit/g09/g09-gfortran/bin/l401.exe)
 Initial guess read from the read-write file.
 B after Tr=     0.000000    0.000000    0.000000
         Rot=    1.000000    0.000000    0.000000    0.000000 Ang=   0.00 deg.
 Guess basis will be translated and rotated to current coordinates.
 Initial guess orbital symmetries:
       Occupied  (SG) (SG) (SG) (SG) (PI) (PI)
       Virtual   (SG) (PI) (PI) (SG) (SG) (PI) (PI) (SG) (SG) (PI)
                 (PI) (SG) (PI) (PI) (SG) (DLTA) (DLTA) (PI) (PI)
                 (SG) (SG) (SG) (SG) (PI) (PI) (DLTA) (DLTA) (SG)
                 (PI) (PI) (SG) (SG)
 The electronic state of the initial guess is 1-SG.
 Generating alternative initial guess.
 Harris functional with IExCor=  402 diagonalized for initial guess.
 ExpMin= 7.40D-03 ExpMax= 7.00D+03 ExpMxC= 1.05D+03 IAcc=3 IRadAn=         0 AccDes= 0.00D+00
 HarFok:  IExCor=  402 AccDes= 0.00D+00 IRadAn=         0 IDoV= 1
 ScaDFX=  1.000000  1.000000  1.000000  1.000000
 FoFCou: FMM=F IPFlag=           0 FMFlag=      100000 FMFlg1=           0
         NFxFlg=           0 DoJE=T BraDBF=F KetDBF=T FulRan=T
         Omega=  0.000000  0.000000  1.000000  0.000000  0.000000 ICntrl=     500 IOpCl=  0
         NMat0=    1 NMatS0=    1 NMatT0=    0 NMatD0=    1 NMtDS0=    0 NMtDT0=    0
         I1Cent=           4 NGrid=           0.
 Petite list used in FoFCou.
 Harris En= -107.513856335641    
 Leave Link  401 at Fri May 24 11:35:35 2024, MaxMem=   33554432 cpu:       0.1
 (Enter /programs/64bit/g09/g09-gfortran/bin/l502.exe)
 Closed shell SCF:
 Requested convergence on RMS density matrix=1.00D-08 within 128 cycles.
 Requested convergence on MAX density matrix=1.00D-06.
 Requested convergence on             energy=1.00D-06.
 No special actions if energy rises.
 Using DIIS extrapolation, IDIIS=  1040.
 Integral symmetry usage will be decided dynamically.
        17448 words used for storage of precomputed grid.
 Keep R1 ints in memory in canonical form, NReq=1174419.
 IEnd=       40464 IEndB=       40464 NGot=    33554432 MDV=    33257152
 LenX=    33257152 LenY=    33255267
 Symmetry not used in FoFDir.
 MinBra= 0 MaxBra= 2 Meth= 1.
 IRaf=       0 NMat=   1 IRICut=       1 DoRegI=T DoRafI=F ISym2E= 0 JSym2E=0.

 Cycle   1  Pass 1  IDiag  1:
 E= -107.434805633972    
 DIIS: error= 8.41D-04 at cycle   1 NSaved=   1.
 NSaved= 1 IEnMin= 1 EnMin= -107.434805633972     IErMin= 1 ErrMin= 8.41D-04
 ErrMax= 8.41D-04 EMaxC= 1.00D-01 BMatC= 4.21D-05 BMatP= 4.21D-05
 IDIUse=3 WtCom= 9.92D-01 WtEn= 8.41D-03
 Coeff-Com:  0.100D+01
 Coeff-En:   0.100D+01
 Coeff:      0.100D+01
 Gap=     0.230 Goal=   None    Shift=    0.000
 RMSDP=7.79D-04 MaxDP=9.17D-03              OVMax= 6.59D-03

 Cycle   2  Pass 1  IDiag  1:
 E= -107.434871385586     Delta-E=       -0.000065751614 Rises=F Damp=F
 DIIS: error= 6.47D-04 at cycle   2 NSaved=   2.
 NSaved= 2 IEnMin= 2 EnMin= -107.434871385586     IErMin= 2 ErrMin= 6.47D-04
 ErrMax= 6.47D-04 EMaxC= 1.00D-01 BMatC= 1.96D-05 BMatP= 4.21D-05
 IDIUse=3 WtCom= 9.94D-01 WtEn= 6.47D-03
 Coeff-Com:  0.358D+00 0.642D+00
 Coeff-En:   0.000D+00 0.100D+01
 Coeff:      0.356D+00 0.644D+00
 Gap=     0.225 Goal=   None    Shift=    0.000
 RMSDP=1.20D-04 MaxDP=1.40D-03 DE=-6.58D-05 OVMax= 1.99D-03

 Cycle   3  Pass 1  IDiag  1:
 E= -107.434876273195     Delta-E=       -0.000004887609 Rises=F Damp=F
 DIIS: error= 4.89D-04 at cycle   3 NSaved=   3.
 NSaved= 3 IEnMin= 3 EnMin= -107.434876273195     IErMin= 3 ErrMin= 4.89D-04
 ErrMax= 4.89D-04 EMaxC= 1.00D-01 BMatC= 1.28D-05 BMatP= 1.96D-05
 IDIUse=3 WtCom= 9.95D-01 WtEn= 4.89D-03
 Coeff-Com:  0.488D-01 0.434D+00 0.518D+00
 Coeff-En:   0.000D+00 0.403D+00 0.597D+00
 Coeff:      0.486D-01 0.433D+00 0.518D+00
 Gap=     0.226 Goal=   None    Shift=    0.000
 RMSDP=5.41D-05 MaxDP=6.90D-04 DE=-4.89D-06 OVMax= 9.47D-04

 Cycle   4  Pass 1  IDiag  1:
 E= -107.434884527117     Delta-E=       -0.000008253922 Rises=F Damp=F
 DIIS: error= 4.72D-05 at cycle   4 NSaved=   4.
 NSaved= 4 IEnMin= 4 EnMin= -107.434884527117     IErMin= 4 ErrMin= 4.72D-05
 ErrMax= 4.72D-05 EMaxC= 1.00D-01 BMatC= 9.87D-08 BMatP= 1.28D-05
 IDIUse=1 WtCom= 1.00D+00 WtEn= 0.00D+00
 Coeff-Com: -0.106D-01 0.342D-01 0.110D+00 0.866D+00
 Coeff:     -0.106D-01 0.342D-01 0.110D+00 0.866D+00
 Gap=     0.226 Goal=   None    Shift=    0.000
 RMSDP=1.03D-05 MaxDP=8.63D-05 DE=-8.25D-06 OVMax= 1.32D-04

 Cycle   5  Pass 1  IDiag  1:
 E= -107.434884608875     Delta-E=       -0.000000081758 Rises=F Damp=F
 DIIS: error= 3.43D-06 at cycle   5 NSaved=   5.
 NSaved= 5 IEnMin= 5 EnMin= -107.434884608875     IErMin= 5 ErrMin= 3.43D-06
 ErrMax= 3.43D-06 EMaxC= 1.00D-01 BMatC= 7.74D-10 BMatP= 9.87D-08
 IDIUse=1 WtCom= 1.00D+00 WtEn= 0.00D+00
 Coeff-Com:  0.281D-03-0.496D-02-0.149D-01-0.208D-01 0.104D+01
 Coeff:      0.281D-03-0.496D-02-0.149D-01-0.208D-01 0.104D+01
 Gap=     0.226 Goal=   None    Shift=    0.000
 RMSDP=8.72D-07 MaxDP=1.10D-05 DE=-8.18D-08 OVMax= 2.72D-05

 Cycle   6  Pass 1  IDiag  1:
 E= -107.434884609719     Delta-E=       -0.000000000843 Rises=F Damp=F
 DIIS: error= 4.96D-07 at cycle   6 NSaved=   6.
 NSaved= 6 IEnMin= 6 EnMin= -107.434884609719     IErMin= 6 ErrMin= 4.96D-07
 ErrMax= 4.96D-07 EMaxC= 1.00D-01 BMatC= 1.15D-11 BMatP= 7.74D-10
 IDIUse=1 WtCom= 1.00D+00 WtEn= 0.00D+00
 Coeff-Com:  0.893D-04-0.521D-03-0.270D-03-0.855D-02-0.114D-01 0.102D+01
 Coeff:      0.893D-04-0.521D-03-0.270D-03-0.855D-02-0.114D-01 0.102D+01
 Gap=     0.226 Goal=   None    Shift=    0.000
 RMSDP=9.96D-08 MaxDP=9.56D-07 DE=-8.43D-10 OVMax= 2.38D-06

 Cycle   7  Pass 1  IDiag  1:
 E= -107.434884609730     Delta-E=       -0.000000000011 Rises=F Damp=F
 DIIS: error= 1.55D-08 at cycle   7 NSaved=   7.
 NSaved= 7 IEnMin= 7 EnMin= -107.434884609730     IErMin= 7 ErrMin= 1.55D-08
 ErrMax= 1.55D-08 EMaxC= 1.00D-01 BMatC= 4.34D-15 BMatP= 1.15D-11
 IDIUse=1 WtCom= 1.00D+00 WtEn= 0.00D+00
 Coeff-Com: -0.789D-05 0.820D-04 0.110D-03 0.754D-03-0.515D-02-0.944D-01
 Coeff-Com:  0.110D+01
 Coeff:     -0.789D-05 0.820D-04 0.110D-03 0.754D-03-0.515D-02-0.944D-01
 Coeff:      0.110D+01
 Gap=     0.226 Goal=   None    Shift=    0.000
 RMSDP=6.84D-09 MaxDP=7.73D-08 DE=-1.09D-11 OVMax= 2.15D-07

 SCF Done:  E(RB3LYP) =  -107.434884610     A.U. after    7 cycles
             Convg  =    0.6842D-08             -V/T =  2.0084
 KE= 1.065398960798D+02 PE=-2.753957749959D+02 EE= 5.241224155766D+01
 Leave Link  502 at Fri May 24 11:35:35 2024, MaxMem=   33554432 cpu:       0.2
 (Enter /programs/64bit/g09/g09-gfortran/bin/l701.exe)
 Compute integral first derivatives.
 ... and contract with generalized density number  0.
 Leave Link  701 at Fri May 24 11:35:35 2024, MaxMem=   33554432 cpu:       0.1
 (Enter /programs/64bit/g09/g09-gfortran/bin/l702.exe)
 L702 exits ... SP integral derivatives will be done elsewhere.
 Leave Link  702 at Fri May 24 11:35:35 2024, MaxMem=   33554432 cpu:       0.0
 (Enter /programs/64bit/g09/g09-gfortran/bin/l703.exe)
 Compute integral first derivatives, UseDBF=F ICtDFT=           0.
 Integral derivatives from FoFDir, PRISM(SPDF).
 Calling FoFJK, ICntrl=      2127 FMM=F ISym2X=1 I1Cent= 0 IOpClX= 0 NMat=1 NMatS=1 NMatT=0.
 FoFCou: FMM=F IPFlag=           0 FMFlag=      100000 FMFlg1=         800
         NFxFlg=           0 DoJE=F BraDBF=F KetDBF=F FulRan=T
         Omega=  0.000000  0.000000  1.000000  0.000000  0.000000 ICntrl=    2127 IOpCl=  0
         NMat0=    1 NMatS0=    1 NMatT0=    0 NMatD0=    1 NMtDS0=    0 NMtDT0=    0
         I1Cent=           0 NGrid=           0.
 Petite list used in FoFCou.
 Leave Link  703 at Fri May 24 11:35:36 2024, MaxMem=   33554432 cpu:       0.2
 (Enter /programs/64bit/g09/g09-gfortran/bin/l716.exe)
 Dipole        = 0.00000000D+00 0.00000000D+00-2.52900165D+00
 ***** Axes restored to original set *****
 -------------------------------------------------------------------
 Center     Atomic                   Forces (Hartrees/Bohr)
 Number     Number              X              Y              Z
 -------------------------------------------------------------------
      1        3          -0.000000000   -0.000000000   -0.000090388
      2        9          -0.000000000   -0.000000000    0.000090388
 -------------------------------------------------------------------
 Cartesian Forces:  Max     0.000090388 RMS     0.000052185
 Leave Link  716 at Fri May 24 11:35:36 2024, MaxMem=   33554432 cpu:       0.0
 (Enter /programs/64bit/g09/g09-gfortran/bin/l103.exe)

 GradGradGradGradGradGradGradGradGradGradGradGradGradGradGradGradGradGrad
 Berny optimization.
 Using GEDIIS/GDIIS optimizer.
 Internal  Forces:  Max     0.000090388 RMS     0.000090388
 Search for a local minimum.
 Step number   3 out of a maximum of   20
 All quantities printed in internal units (Hartrees-Bohrs-Radians)
 RMS Force = .90388D-04 SwitMx=.10000D-02 MixMth= 2
 Mixed Optimization -- En-DIIS/RFO-DIIS
 Update second derivatives using D2CorX and points    2    3
 DE= -3.60D-04 DEPred=-4.31D-04 R= 8.36D-01
 SS=  1.41D+00  RLast= 7.17D-02 DXNew= 5.8785D-01 2.1518D-01
 Trust test= 8.36D-01 RLast= 7.17D-02 DXMaxT set to 3.50D-01
 The second derivative matrix:
                          R1
           R1           0.13779
 Use linear search instead of GDIIS.
     Eigenvalues ---    0.13779
 RFO step:  Lambda= 0.00000000D+00 EMin= 1.37794895D-01
 Quartic linear search produced a step of -0.00831.
 Iteration  1 RMS(Cart)=  0.00042142 RMS(Int)=  0.00000000
 Iteration  2 RMS(Cart)=  0.00000000 RMS(Int)=  0.00000000
 ClnCor:  largest displacement from symmetrization is 0.00D+00 for atom     0.
 Variable       Old X    -DE/DX   Delta X   Delta X   Delta X     New X
                                 (Linear)    (Quad)   (Total)
    R1        2.99709   0.00009   0.00060   0.00000   0.00060   2.99768
         Item               Value     Threshold  Converged?
 Maximum Force            0.000090     0.000450     YES
 RMS     Force            0.000090     0.000300     YES
 Maximum Displacement     0.000298     0.001800     YES
 RMS     Displacement     0.000421     0.001200     YES
 Predicted change in Energy=-2.939746D-08
 Optimization completed.
    -- Stationary point found.
                           ----------------------------
                           !   Optimized Parameters   !
                           ! (Angstroms and Degrees)  !
 --------------------------                            --------------------------
 ! Name  Definition              Value          Derivative Info.                !
 --------------------------------------------------------------------------------
 ! R1    R(1,2)                  1.586          -DE/DX =    0.0001              !
 --------------------------------------------------------------------------------
 GradGradGradGradGradGradGradGradGradGradGradGradGradGradGradGradGradGrad

 Largest change from initial coordinates is atom    1       0.025 Angstoms.
 Leave Link  103 at Fri May 24 11:35:36 2024, MaxMem=   33554432 cpu:       0.0
 (Enter /programs/64bit/g09/g09-gfortran/bin/l202.exe)
                          Input orientation:                          
 ---------------------------------------------------------------------
 Center     Atomic      Atomic             Coordinates (Angstroms)
 Number     Number       Type             X           Y           Z
 ---------------------------------------------------------------------
      1          3           0        0.000000    0.000000    0.049805
      2          9           0        0.000000    0.000000    1.635795
 ---------------------------------------------------------------------
 Stoichiometry    FLi
 Framework group  C*V[C*(LiF)]
 Deg. of freedom     1
 Full point group                 C*V     NOp   4
 Largest Abelian subgroup         C2V     NOp   4
 Largest concise Abelian subgroup C1      NOp   1
                         Standard orientation:                         
 ---------------------------------------------------------------------
 Center     Atomic      Atomic             Coordinates (Angstroms)
 Number     Number       Type             X           Y           Z
 ---------------------------------------------------------------------
      1          3           0        0.000000    0.000000   -1.189492
      2          9           0        0.000000    0.000000    0.396497
 ---------------------------------------------------------------------
 Rotational constants (GHZ):      0.0000000     39.2124270     39.2124270
 Leave Link  202 at Fri May 24 11:35:36 2024, MaxMem=   33554432 cpu:       0.0
 (Enter /programs/64bit/g09/g09-gfortran/bin/l601.exe)
 Copying SCF densities to generalized density rwf, IOpCl= 0 IROHF=0.

 **********************************************************************

            Population analysis using the SCF density.

 **********************************************************************

 Orbital symmetries:
       Occupied  (SG) (SG) (SG) (SG) (PI) (PI)
       Virtual   (SG) (PI) (PI) (SG) (SG) (PI) (PI) (SG) (SG) (PI)
                 (PI) (SG) (PI) (PI) (SG) (DLTA) (DLTA) (PI) (PI)
                 (SG) (SG) (SG) (SG) (PI) (PI) (SG) (DLTA) (DLTA)
                 (PI) (PI) (SG) (SG)
 The electronic state is 1-SG.
 Alpha  occ. eigenvalues --  -24.55128  -2.00804  -1.00060  -0.29478  -0.27986
 Alpha  occ. eigenvalues --   -0.27986
 Alpha virt. eigenvalues --   -0.05429   0.00297   0.00297   0.00414   0.01774
 Alpha virt. eigenvalues --    0.03608   0.03608   0.06455   0.14912   0.16084
 Alpha virt. eigenvalues --    0.16084   0.27193   0.31017   0.31017   0.31992
 Alpha virt. eigenvalues --    0.46652   0.46658   0.58871   0.58871   0.61870
 Alpha virt. eigenvalues --    1.19689   1.47471   1.58457   1.63211   1.63211
 Alpha virt. eigenvalues --    1.97944   1.98457   1.98471   2.10982   2.10982
 Alpha virt. eigenvalues --    2.16983   4.95299
          Condensed to atoms (all electrons):
              1          2
     1  Li   2.149620   0.187487
     2  F    0.187487   9.475406
 Mulliken atomic charges:
              1
     1  Li   0.662893
     2  F   -0.662893
 Sum of Mulliken atomic charges =  -0.00000
 Mulliken charges with hydrogens summed into heavy atoms:
              1
     1  Li   0.662893
     2  F   -0.662893
 Sum of Mulliken charges with hydrogens summed into heavy atoms =  -0.00000
 Electronic spatial extent (au):  <R**2>=             32.4329
 Charge=             -0.0000 electrons
 Dipole moment (field-independent basis, Debye):
    X=              0.0000    Y=              0.0000    Z=             -6.4281  Tot=              6.4281
 Quadrupole moment (field-independent basis, Debye-Ang):
   XX=             -7.6784   YY=             -7.6784   ZZ=             -1.0826
   XY=              0.0000   XZ=              0.0000   YZ=              0.0000
 Traceless Quadrupole moment (field-independent basis, Debye-Ang):
   XX=             -2.1986   YY=             -2.1986   ZZ=              4.3972
   XY=              0.0000   XZ=              0.0000   YZ=              0.0000
 Octapole moment (field-independent basis, Debye-Ang**2):
  XXX=              0.0000  YYY=              0.0000  ZZZ=            -12.6066  XYY=              0.0000
  XXY=              0.0000  XXZ=             -1.3847  XZZ=              0.0000  YZZ=              0.0000
  YYZ=             -1.3847  XYZ=              0.0000
 Hexadecapole moment (field-independent basis, Debye-Ang**3):
 XXXX=            -10.8312 YYYY=            -10.8312 ZZZZ=            -13.3212 XXXY=              0.0000
 XXXZ=              0.0000 YYYX=              0.0000 YYYZ=              0.0000 ZZZX=              0.0000
 ZZZY=              0.0000 XXYY=             -3.6104 XXZZ=             -5.5520 YYZZ=             -5.5520
 XXYZ=              0.0000 YYXZ=              0.0000 ZZXY=              0.0000
 N-N= 9.008752748737D+00 E-N=-2.753957748843D+02  KE= 1.065398960798D+02
 Symmetry A1   KE= 9.506865231750D+01
 Symmetry A2   KE= 1.375840632703D-51
 Symmetry B1   KE= 5.735621881147D+00
 Symmetry B2   KE= 5.735621881147D+00
 No NMR shielding tensors so no spin-rotation constants.
 Leave Link  601 at Fri May 24 11:35:36 2024, MaxMem=   33554432 cpu:       0.1
 (Enter /programs/64bit/g09/g09-gfortran/bin/l9999.exe)
 B after Tr=     0.000000    0.000000    2.388992
         Rot=    1.000000    0.000000    0.000000    0.000000 Ang=   0.00 deg.
 Final structure in terms of initial Z-matrix:
 Li
 F,1,fli2
      Variables:
 fli2=1.58598921
 1\1\GINC-MOLMOD\FOpt\RB3LYP\6-31+G(d,p)\F1Li1\OSPITE\24-May-2024\0\\#p
  B3LYP/6-31+g** opt out=wfn\\floruro di litio\\0,1\Li,0.,0.,0.04980539
 63\F,0.,0.,1.6357946037\\Version=EM64L-G09RevA.02\State=1-SG\HF=-107.4
 348846\RMSD=6.842e-09\RMSF=5.219e-05\Dipole=0.,0.,-2.5290017\Quadrupol
 e=-1.6346022,-1.6346022,3.2692043,0.,0.,0.\PG=C*V [C*(Li1F1)]\\@

 Writing a WFN file to LiF.wfn.


 THEREFORE SHALL EVIL COME UPON THEE...
 THOU SHALT NOT KNOW FROM WHENCE IT RISETH...
 AND MISCHIEF SHALL FALL UPON THEE...
 THOU SHALT NOT BE ABLE TO PUT IT OFF...
 AND DESOLATION SHALL COME UPON THEE SUDDENLY...
 WHICH THOU SHALT NOT KNOW...

                                         ISAIAH 47.11
 Job cpu time:  0 days  0 hours  0 minutes  3.7 seconds.
 File lengths (MBytes):  RWF=      5 Int=      0 D2E=      0 Chk=      1 Scr=      1
 Normal termination of Gaussian 09 at Fri May 24 11:35:36 2024.
