 floruro di litio                                        
GAUSSIAN              6 MOL ORBITALS     64 PRIMITIVES        2 NUCLEI
  Li   1    (CENTRE  1)   0.00000000  0.00000000 -2.24781394  CHARGE =  3.0
  F    2    (CENTRE  2)   0.00000000  0.00000000  0.74927131  CHARGE =  9.0
CENTRE ASSIGNMENTS    1  1  1  1  1  1  1  1  1  1  1  1  1  1  1  1  1  1  1  1
CENTRE ASSIGNMENTS    1  1  1  1  1  1  1  1  1  1  1  1  2  2  2  2  2  2  2  2
CENTRE ASSIGNMENTS    2  2  2  2  2  2  2  2  2  2  2  2  2  2  2  2  2  2  2  2
CENTRE ASSIGNMENTS    2  2  2  2
TYPE ASSIGNMENTS      1  1  1  1  1  1  1  1  1  2  2  2  3  3  3  4  4  4  1  2
TYPE ASSIGNMENTS      3  4  1  2  3  4  5  6  7  8  9 10  1  1  1  1  1  1  1  1
TYPE ASSIGNMENTS      1  2  2  2  3  3  3  4  4  4  1  2  3  4  1  2  3  4  5  6
TYPE ASSIGNMENTS      7  8  9 10
EXPONENTS  0.6424189D+03 0.9679852D+02 0.2209112D+02 0.6201070D+01 0.1935118D+01
EXPONENTS  0.6367358D+00 0.2324918D+01 0.6324304D+00 0.7905343D-01 0.2324918D+01
EXPONENTS  0.6324304D+00 0.7905343D-01 0.2324918D+01 0.6324304D+00 0.7905343D-01
EXPONENTS  0.2324918D+01 0.6324304D+00 0.7905343D-01 0.3596197D-01 0.3596197D-01
EXPONENTS  0.3596197D-01 0.3596197D-01 0.7400000D-02 0.7400000D-02 0.7400000D-02
EXPONENTS  0.7400000D-02 0.2000000D+00 0.2000000D+00 0.2000000D+00 0.2000000D+00
EXPONENTS  0.2000000D+00 0.2000000D+00 0.7001713D+04 0.1051366D+04 0.2392857D+03
EXPONENTS  0.6739745D+02 0.2151996D+02 0.7403101D+01 0.2084795D+02 0.4808308D+01
EXPONENTS  0.1344070D+01 0.2084795D+02 0.4808308D+01 0.1344070D+01 0.2084795D+02
EXPONENTS  0.4808308D+01 0.1344070D+01 0.2084795D+02 0.4808308D+01 0.1344070D+01
EXPONENTS  0.3581514D+00 0.3581514D+00 0.3581514D+00 0.3581514D+00 0.1076000D+00
EXPONENTS  0.1076000D+00 0.1076000D+00 0.1076000D+00 0.8000000D+00 0.8000000D+00
EXPONENTS  0.8000000D+00 0.8000000D+00 0.8000000D+00 0.8000000D+00
MO    1     MO 0.0        OCC NO =    2.0000000  ORB. ENERGY =  -24.551282
  0.75662449D-05  0.13842938D-04  0.21802398D-04  0.26728906D-04  0.21348972D-04
  0.68148267D-05 -0.64809277D-04 -0.13302964D-03  0.15852266D-03  0.00000000D+00
  0.00000000D+00  0.00000000D+00  0.00000000D+00  0.00000000D+00  0.00000000D+00
  0.12771775D-04  0.39568081D-04  0.19716540D-04  0.15213167D-04  0.00000000D+00
  0.00000000D+00  0.95188243D-05 -0.29196664D-07  0.00000000D+00  0.00000000D+00
 -0.15679842D-06 -0.23371821D-04 -0.23371821D-04 -0.42989726D-05  0.00000000D+00
  0.00000000D+00  0.00000000D+00  0.98533736D+00  0.18177499D+01  0.29442807D+01
  0.38804881D+01  0.33311964D+01  0.11323116D+01 -0.13268588D-01 -0.59601615D-02
  0.17658752D-01  0.00000000D+00  0.00000000D+00  0.00000000D+00  0.00000000D+00
  0.00000000D+00  0.00000000D+00 -0.10708091D-02 -0.82651681D-03 -0.35086710D-03
  0.72021304D-02  0.00000000D+00  0.00000000D+00  0.28575429D-04 -0.53470276D-03
  0.00000000D+00  0.00000000D+00  0.32398554D-04 -0.10654041D-01 -0.10654041D-01
 -0.10668686D-01  0.00000000D+00  0.00000000D+00  0.00000000D+00
MO    2     MO 0.0        OCC NO =    2.0000000  ORB. ENERGY =   -2.008035
  0.19350549D+00  0.35403090D+00  0.55759280D+00  0.68358746D+00  0.54599651D+00
  0.17428809D+00 -0.22378107D-02 -0.45934035D-02  0.54736565D-02  0.00000000D+00
  0.00000000D+00  0.00000000D+00  0.00000000D+00  0.00000000D+00  0.00000000D+00
 -0.99996483D-03 -0.30979789D-02 -0.15437045D-02 -0.19800964D-02  0.00000000D+00
  0.00000000D+00  0.26974914D-03  0.10676684D-03  0.00000000D+00  0.00000000D+00
 -0.69819669D-05 -0.72286832D-03 -0.72286832D-03 -0.13591272D-02  0.00000000D+00
  0.00000000D+00  0.00000000D+00 -0.44425481D-02 -0.81956107D-02 -0.13274751D-01
 -0.17495790D-01 -0.15019222D-01 -0.51052044D-02 -0.85426810D-02 -0.38373154D-02
  0.11369189D-01  0.00000000D+00  0.00000000D+00  0.00000000D+00  0.00000000D+00
  0.00000000D+00  0.00000000D+00 -0.35777259D-01 -0.27615106D-01 -0.11722970D-01
  0.70900963D-03  0.00000000D+00  0.00000000D+00 -0.26033629D-02  0.31972874D-02
  0.00000000D+00  0.00000000D+00 -0.81588146D-03  0.98937508D-03  0.98937508D-03
  0.51040211D-02  0.00000000D+00  0.00000000D+00  0.00000000D+00
MO    3     MO 0.0        OCC NO =    2.0000000  ORB. ENERGY =   -1.000596
 -0.12156550D-01 -0.22241200D-01 -0.35029521D-01 -0.42944854D-01 -0.34301010D-01
 -0.10949260D-01 -0.36271853D-02 -0.74452793D-02  0.88720490D-02  0.00000000D+00
  0.00000000D+00  0.00000000D+00  0.00000000D+00  0.00000000D+00  0.00000000D+00
  0.20323749D-02  0.62964759D-02  0.31374965D-02 -0.74000524D-03  0.00000000D+00
  0.00000000D+00 -0.42226502D-03  0.89294635D-05  0.00000000D+00  0.00000000D+00
  0.91815983D-05 -0.77731518D-03 -0.77731518D-03 -0.49587857D-03  0.00000000D+00
  0.00000000D+00  0.00000000D+00 -0.23422274D+00 -0.43209400D+00 -0.69987956D+00
 -0.92242372D+00 -0.79185260D+00 -0.26915971D+00 -0.39159105D+00 -0.17590009D+00
  0.52115637D+00  0.00000000D+00  0.00000000D+00  0.00000000D+00  0.00000000D+00
  0.00000000D+00  0.00000000D+00 -0.12567103D+00 -0.97000692D-01 -0.41178051D-01
  0.17408272D+00  0.00000000D+00  0.00000000D+00 -0.15565349D-01 -0.33683636D-02
  0.00000000D+00  0.00000000D+00  0.25877947D-02  0.81828958D-02  0.81828958D-02
  0.20500595D-01  0.00000000D+00  0.00000000D+00  0.00000000D+00
MO    4     MO 0.0        OCC NO =    2.0000000  ORB. ENERGY =   -0.294777
  0.19020263D-01  0.34798809D-01  0.54807549D-01  0.67191959D-01  0.53667713D-01
  0.17131324D-01  0.11800093D-01  0.24221257D-01 -0.28862877D-01  0.00000000D+00
  0.00000000D+00  0.00000000D+00  0.00000000D+00  0.00000000D+00  0.00000000D+00
 -0.88021177D-02 -0.27269734D-01 -0.13588346D-01  0.22114213D-02  0.00000000D+00
  0.00000000D+00  0.23597949D-02 -0.16789276D-04  0.00000000D+00  0.00000000D+00
 -0.56538555D-04  0.22545639D-02  0.22545639D-02  0.10213386D-02  0.00000000D+00
  0.00000000D+00  0.00000000D+00 -0.14306923D-01 -0.26393406D-01 -0.42750432D-01
 -0.56343998D-01 -0.48368380D-01 -0.16440963D-01 -0.46934589D-01 -0.21082705D-01
  0.62463788D-01  0.00000000D+00  0.00000000D+00  0.00000000D+00  0.00000000D+00
  0.00000000D+00  0.00000000D+00  0.28847959D+01  0.22266644D+01  0.94524787D+00
 -0.56903459D-02  0.00000000D+00  0.00000000D+00  0.17055093D+00  0.27369831D-01
  0.00000000D+00  0.00000000D+00  0.37447875D-02  0.20806109D-01  0.20806109D-01
 -0.95760310D-02  0.00000000D+00  0.00000000D+00  0.00000000D+00
MO    5     MO 0.0        OCC NO =    2.0000000  ORB. ENERGY =   -0.279861
  0.00000000D+00  0.00000000D+00  0.00000000D+00  0.00000000D+00  0.00000000D+00
  0.00000000D+00 -0.00000000D+00 -0.00000000D+00  0.00000000D+00  0.45972105D-02
  0.14242562D-01  0.70969839D-02  0.00000000D+00  0.00000000D+00  0.00000000D+00
  0.00000000D+00  0.00000000D+00  0.00000000D+00  0.00000000D+00 -0.10094755D-02
  0.00000000D+00  0.00000000D+00  0.00000000D+00  0.40036953D-04  0.00000000D+00
  0.00000000D+00  0.00000000D+00  0.00000000D+00  0.00000000D+00  0.00000000D+00
  0.47664006D-02  0.00000000D+00  0.00000000D+00  0.00000000D+00  0.00000000D+00
  0.00000000D+00  0.00000000D+00  0.00000000D+00 -0.00000000D+00 -0.00000000D+00
  0.00000000D+00  0.28735627D+01  0.22179939D+01  0.94156714D+00  0.00000000D+00
  0.00000000D+00  0.00000000D+00  0.00000000D+00  0.00000000D+00  0.00000000D+00
  0.00000000D+00  0.15978543D+00  0.00000000D+00  0.00000000D+00  0.00000000D+00
  0.11021149D-01  0.00000000D+00  0.00000000D+00  0.00000000D+00  0.00000000D+00
  0.00000000D+00  0.00000000D+00 -0.26037724D-01  0.00000000D+00
MO    6     MO 0.0        OCC NO =    2.0000000  ORB. ENERGY =   -0.279861
  0.00000000D+00  0.00000000D+00  0.00000000D+00  0.00000000D+00  0.00000000D+00
  0.00000000D+00 -0.00000000D+00 -0.00000000D+00  0.00000000D+00  0.00000000D+00
  0.00000000D+00  0.00000000D+00  0.45972105D-02  0.14242562D-01  0.70969839D-02
  0.00000000D+00  0.00000000D+00  0.00000000D+00  0.00000000D+00  0.00000000D+00
 -0.10094755D-02  0.00000000D+00  0.00000000D+00  0.00000000D+00  0.40036953D-04
  0.00000000D+00  0.00000000D+00  0.00000000D+00  0.00000000D+00  0.00000000D+00
  0.00000000D+00  0.47664006D-02  0.00000000D+00  0.00000000D+00  0.00000000D+00
  0.00000000D+00  0.00000000D+00  0.00000000D+00 -0.00000000D+00 -0.00000000D+00
  0.00000000D+00  0.00000000D+00  0.00000000D+00  0.00000000D+00  0.28735627D+01
  0.22179939D+01  0.94156714D+00  0.00000000D+00  0.00000000D+00  0.00000000D+00
  0.00000000D+00  0.00000000D+00  0.15978543D+00  0.00000000D+00  0.00000000D+00
  0.00000000D+00  0.11021149D-01  0.00000000D+00  0.00000000D+00  0.00000000D+00
  0.00000000D+00  0.00000000D+00  0.00000000D+00 -0.26037724D-01
END DATA
 THE  HF ENERGY =   -107.434884609730 THE VIRIAL(-V/T)=   2.00840050
