<?xml version="1.0"?>
<molpro xmlns="http://www.molpro.net/schema/molpro-output"
  xmlns:xsd="http://www.w3.org/1999/XMLSchema"
  xmlns:cml="http://www.xml-cml.org/schema"
  xmlns:stm="http://www.xml-cml.org/schema"
  xmlns:xhtml="http://www.w3.org/1999/xhtml">
 <!--

 Primary working directories    : /data/scratch
 Secondary working directories  : /data/scratch
 Wavefunction directory         : /home/ospite/wfu/
 Main file repository           : /data/scratch/

 ARCHNAME  : Linux/x86_64
 FC        : /usr/bin/gfortran
 FCVERSION : 4.8.5
 BLASLIB   : 
 id        : polimi

 Nodes     nprocs
 molmod       1

 Using default tuning parameters: mindgm=1; mindgv=20; mindgc=4; mindgr=1; noblas=0; mincuda=1000; minvec=7
 default implementation of scratch files=df  

 --><job>
  <!--
 memory, 50, m
 nosym
 
 dists = [1.0, 1.1, 1.2, 1.3, 1.4, 1.5, 1.6, 1.7, 1.8, 1.9, 2.0, 2.1, 2.2, 2.3, 2.4, 2.5, 2.6, 2.7, 2.8, 2.9, 3.0.]
 
 geometry={angstrom
 C1
 H2 1 r
 H3 1 r 2 109.5
 H4 1 r 2 109.5 3 300.
 }
 
 do i=1,#dists
 r=dists(i)
 
 basis=cc-pvdz
 hf
 {casscf;closed,4;occ,6;wf,10,1,0;}
 {rs2,shift=0.2}
 ecas(i)=energy
 end do
 
 {table,dists,ecas}
 
 put,molden,molpro.molden

 Variables initialized (661), CPU time= 0.00 sec
 Commands  initialized (458), CPU time= 0.00 sec, 486 directives.
 Default parameters read. Elapsed time= 0.00 sec

 Checking input...
 Passed
1


                                         ***  PROGRAM SYSTEM MOLPRO  ***
                         Copyright, University College Cardiff Consultants Limited, 2008

                                    Version 2010.1 linked Mar  6 2018 16:01:50


 **********************************************************************************************************************************
 LABEL *                                                                                 
 Linux-3.10.0-1160.108.1.el7.x86_64/molmod(x86_64) 64 bit serial version                 DATE: 08-May-24          TIME: 14:55:57  
 **********************************************************************************************************************************

 SHA1:             d90fb18d49a3be29a79769f900c595ef3b8176e2
 **********************************************************************************************************************************
  -->
  <!--

 Variable memory set to   50000000 words,  buffer space   230000 words

 SETTING DISTS(1)       =         1.00000000                                  
 SETTING DISTS(2)       =         1.10000000                                  
 SETTING DISTS(3)       =         1.20000000                                  
 SETTING DISTS(4)       =         1.30000000                                  
 SETTING DISTS(5)       =         1.40000000                                  
 SETTING DISTS(6)       =         1.50000000                                  
 SETTING DISTS(7)       =         1.60000000                                  
 SETTING DISTS(8)       =         1.70000000                                  
 SETTING DISTS(9)       =         1.80000000                                  
 SETTING DISTS(10)      =         1.90000000                                  
 SETTING DISTS(11)      =         2.00000000                                  
 SETTING DISTS(12)      =         2.10000000                                  
 SETTING DISTS(13)      =         2.20000000                                  
 SETTING DISTS(14)      =         2.30000000                                  
 SETTING DISTS(15)      =         2.40000000                                  
 SETTING DISTS(16)      =         2.50000000                                  
 SETTING DISTS(17)      =         2.60000000                                  
 SETTING DISTS(18)      =         2.70000000                                  
 SETTING DISTS(19)      =         2.80000000                                  
 SETTING DISTS(20)      =         2.90000000                                  
 SETTING DISTS(21)      =         3.00000000                                  
 ZSYMEL=NOSYM


 DO I                   =         1.00000000   
 SETTING R              =         1.00000000                                  
 SETTING BASIS          =    CC-PVDZ
  --><jobstep command="HF-SCF" commandset="SCFPRO">
   <!--


 Recomputing integrals since basis changed


 Using spherical harmonics

 Library entry C      S cc-pVDZ              selected for orbital group  1
 Library entry C      P cc-pVDZ              selected for orbital group  1
 Library entry C      D cc-pVDZ              selected for orbital group  1
 Library entry H      S cc-pVDZ              selected for orbital group  2
 Library entry H      P cc-pVDZ              selected for orbital group  2

1PROGRAM * SEWARD (Integral evaluation for generally contracted gaussian basis sets)     Author: Roland Lindh, 1990

 Geometry written to block  1 of record 700

 Orientation using atomic masses  
 Molecule type: Asymmetric top
 Rotational constants:     211.5963586    226.7454154    478.9414151 GHz  (calculated with average atomic masses)

 Point group  C1  


   --><cml:symmetry pointGroup="C1"/><!--
   --><cml:atomArray>
    <cml:atom id="a1" elementType="C" x3="0.236822547973288E-15" y3="-0.947452669857385E-01"
      z3="0.591668783172729E-01"/>
    <cml:atom id="a2" elementType="H" x3="-0.149271040636589E-14" y3="0.593497306616001"
      z3="0.784647518914976"/>
    <cml:atom id="a3" elementType="H" x3="0.471320745546088" y3="0.26776183430322"
      z3="-0.744851377901425"/>
    <cml:atom id="a4" elementType="H" x3="-0.47132074554609" y3="0.267761834303217"
      z3="-0.744851377901425"/>
   </cml:atomArray><!--
   --><cml:bondArray>
    <cml:bond atomRefs2="a1 a2"/>
    <cml:bond atomRefs2="a1 a3"/>
    <cml:bond atomRefs2="a1 a4"/>
   </cml:bondArray><!--

 ATOMIC COORDINATES

 NR  ATOM    CHARGE       X              Y              Z

   1  C1      6.00    0.000000000   -0.179042607    0.111809196
   2  H2      1.00   -0.000000000    1.121547369    1.482768920
   3  H3      1.00    0.890667129    0.505996535   -1.407565113
   4  H4      1.00   -0.890667129    0.505996535   -1.407565113

 Bond lengths in Bohr (Angstrom)

 1-2  1.889726131  1-3  1.889726131  1-4  1.889726131
     ( 1.000000000)     ( 1.000000000)     ( 1.000000000)

 Bond angles

  2-1-3  109.50000000   2-1-4  109.50000000   3-1-4   56.24012638

 NUCLEAR CHARGE:                    9
 NUMBER OF PRIMITIVE AOS:          48
 NUMBER OF SYMMETRY AOS:           47
 NUMBER OF CONTRACTIONS:           29   (  29A   )
 NUMBER OF CORE ORBITALS:           1   (   1A   )
 NUMBER OF VALENCE ORBITALS:        7   (   7A   )


 NUCLEAR REPULSION ENERGY   10.73455873


 Eigenvalues of metric

         1 0.116E-01 0.220E-01 0.285E-01 0.302E-01 0.485E-01 0.500E-01 0.119E+00 0.124E+00


 Contracted 2-electron integrals neglected if value below      1.0D-11
 AO integral compression algorithm  1   Integral accuracy      1.0D-11

     0.786 MB (compressed) written to integral file ( 67.5%)


 NUMBER OF SORTED TWO-ELECTRON INTEGRALS:      94830.     BUFFER LENGTH:  32768
 NUMBER OF SEGMENTS:   1  SEGMENT LENGTH:      94830      RECORD LENGTH: 524288

 Memory used in sort:       0.65 MW

 SORT1 READ      121049. AND WROTE       82680. INTEGRALS IN      1 RECORDS. CPU TIME:     0.00 SEC, REAL TIME:     0.01 SEC
 SORT2 READ       82680. AND WROTE       94830. INTEGRALS IN      3 RECORDS. CPU TIME:     0.00 SEC, REAL TIME:     0.00 SEC

 FILE SIZES:   FILE 1:     3.4 MBYTE,  FILE 4:     4.2 MBYTE,   TOTAL:      7.6 MBYTE

 OPERATOR DM      FOR CENTER  0  COORDINATES:    0.000000    0.000000    0.000000


 **********************************************************************************************************************************
 DATASETS  * FILE   NREC   LENGTH (MB)   RECORD NAMES
              1      19        3.07       500      610      700      900      950      970     1000      129      960     1100   
                                          VAR    BASINP    GEOM    SYMINP    ZMAT    AOBASIS   BASIS     P2S    ABASIS      S 
                                         1400     1410     1200     1210     1080     1600     1650     1300     1700   
                                           T        V       H0       H01     AOSYM     SMH    MOLCAS    ERIS     OPER   

 PROGRAMS   *        TOTAL       INT
 CPU TIMES  *         0.04      0.02
 REAL TIME  *         0.24 SEC
 DISK USED  *         8.10 MB      
 **********************************************************************************************************************************

1PROGRAM * RHF-SCF (OPEN SHELL)       Authors: W. Meyer, H.-J. Werner


 NUMBER OF ELECTRONS:       5+    4-    SPACE SYMMETRY=1    SPIN SYMMETRY: Doublet 
 CONVERGENCE THRESHOLDS:    1.00E-05 (Density)    1.00E-07 (Energy)
 MAX. NUMBER OF ITERATIONS:       60
 INTERPOLATION TYPE:            DIIS
 INTERPOLATION STEPS:              2 (START)      1 (STEP)
 LEVEL SHIFTS:                 -0.30 (CLOSED) -0.00 (OPEN) 



 Orbital guess generated from atomic densities. Full valence occupancy:    8

 Molecular orbital dump at record        2100.2

 ITERATION    DDIFF          GRAD             ENERGY        2-EL.EN.            DIPOLE MOMENTS         DIIS
    1      0.000D+00      0.000D+00       -39.40404660     46.330041    0.00000    0.41224   -0.45078    0
    2      0.000D+00      0.850D-02       -39.41643624     46.080326   -0.00000    0.35568   -0.30854    1
    3      0.165D-01      0.265D-02       -39.41828230     46.150795    0.00000    0.34325   -0.28413    2
    4      0.627D-02      0.870D-03       -39.41853302     46.131450    0.00000    0.32880   -0.26843    3
    5      0.278D-02      0.251D-03       -39.41855683     46.128770    0.00000    0.32597   -0.26351    4
    6      0.106D-02      0.775D-04       -39.41855941     46.126027    0.00000    0.32479   -0.26088    5
    7      0.416D-03      0.133D-04       -39.41855947     46.125960    0.00000    0.32482   -0.26055    6
    8      0.531D-04      0.278D-05       -39.41855947     46.125972   -0.00000    0.32486   -0.26053    7
    9      0.105D-04      0.525D-06       -39.41855947     46.125982   -0.00000    0.32488   -0.26053    6
   10      0.199D-05      0.146D-06       -39.41855947     46.125983    0.00000    0.32488   -0.26053    0

 Final alpha occupancy:   5
 Final beta  occupancy:   4

 !RHF STATE 1.1 Energy                -39.418559474202
   --><property name="Energy" method="RHF" principal="true" stateSymmetry="1" stateNumber="1"
     value="-39.4185594742016"/><!--
 Nuclear energy                        10.73455873
 One-electron energy                  -73.21610959
 Two-electron energy                   23.06299138
 Virial quotient                       -0.98776269
 !RHF STATE 1.1 Dipole moment           0.00000000     0.32487780    -0.26053072
 Dipole moment /Debye                   0.00000000     0.82570291    -0.66215967
   --><property name="Dipole moment" method="RHF" principal="true" stateSymmetry="1"
     stateNumber="1"
     value="0.773231305373212E-14 0.324877795087084 -0.26053071965375"/><!--

 Orbital energies:

         1.1          2.1          3.1          4.1          5.1          6.1          7.1
    -11.219158    -1.015206    -0.642271    -0.427367    -0.482123     0.188827     0.266014


 **********************************************************************************************************************************
 DATASETS  * FILE   NREC   LENGTH (MB)   RECORD NAMES
              1      19        3.07       500      610      700      900      950      970     1000      129      960     1100   
                                          VAR    BASINP    GEOM    SYMINP    ZMAT    AOBASIS   BASIS     P2S    ABASIS      S 
                                         1400     1410     1200     1210     1080     1600     1650     1300     1700   
                                           T        V       H0       H01     AOSYM     SMH    MOLCAS    ERIS     OPER   

              2       3        0.30       700     1000     2100   
                                         GEOM     BASIS     RHF  

 PROGRAMS   *        TOTAL        HF       INT
 CPU TIMES  *         0.04      0.00      0.02
 REAL TIME  *         0.26 SEC
 DISK USED  *         8.10 MB      
 **********************************************************************************************************************************
   -->
   <time start="14:55:57" end="14:55:57" cpu="0.04" system="0.22" real="0.26"/>
   <storage units="megabyte" memory="401.84" sf="0.0" df="8.1" eaf="0.0"/>
  </jobstep><!--
  --><jobstep command="CASSCF" commandset="MULTI">
   <!--

1PROGRAM * MULTI (Direct Multiconfiguration SCF)       Authors: P.J. Knowles, H.-J. Werner (1984)     S.T. Elbert (1988)


 Number of closed-shell orbitals:  4 (  4 )
 Number of active  orbitals:       2 (  2 )
 Number of external orbitals:     23 ( 23 )

 State symmetry 1

 Number of electrons:     2    Spin symmetry=Singlet   Space symmetry=1
 Number of states:        1
 Number of CSFs:          3   (4 determinants, 4 intermediate states)

 Molecular orbitals read from record     2100.2  Type=RHF/CANONICAL (state 1.1)

 Wavefunction dump at record             2140.2

 Convergence thresholds  0.10E-01 (gradient)  0.10E-05 (energy)  0.10E-02 (step length)

 Number of orbital rotations:     146     (   8 Core/Active   92 Core/Virtual   0 Active/Active   46 Active/Virtual)
 Total number of variables:       150


 ITER. MIC  NCI  NEG     ENERGY(VAR)     ENERGY(PROJ)   ENERGY CHANGE     GRAD(0)  GRAD(ORB)   GRAD(CI)     STEP       TIME

   1   40    7    0     -39.28691158     -39.38062335   -0.09371177    0.53105702 0.00042685 0.00000000  0.88D+00      0.00
   2   33    8    0     -39.38419790     -39.38542376   -0.00122586    0.04159552 0.00000398 0.00000000  0.17D+00      0.01
   3   50    8    0     -39.38543545     -39.38543768   -0.00000223    0.00066723 0.00000001 0.00000000  0.38D-01      0.02
   4   40    8    0     -39.38543771     -39.38543771   -0.00000000    0.00002691 0.00000002 0.00000000  0.20D-02      0.03
   5   40    4    0     -39.38543771     -39.38543771   -0.00000000    0.00000005 0.00000000 0.00000000  0.21D-05      0.03

 ** WVFN ****  CONVERGENCE REACHED, FINAL GRADIENT:  0.36D-07


 First order charge density matrix for state 1.1 saved on record  2140.2 (density set 1)

 Results for state 1.1
 =====================

 !MCSCF STATE 1.1 Energy              -39.385437710515
   --><property name="Energy" method="MCSCF" principal="true" stateSymmetry="1" stateNumber="1"
     value="-39.3854377105155"/><!--
 Nuclear energy                        10.73455873
 Kinetic energy                        40.07815923
 One electron energy                  -76.35568943
 Two electron energy                   26.23569298
 Virial ratio                           1.98271574

 !MCSCF STATE 1.1 Dipole moment         0.00000001     0.80662943    -0.24836032
 Dipole moment /Debye                   0.00000002     2.05011323    -0.63122763
   --><property name="Dipole moment" method="MCSCF" principal="true" stateSymmetry="1"
     stateNumber="1"
     value="0.653993464546534E-08 0.806629432301295 -0.248360322222918"/><!--


 Natural orbital dump at molpro section                    2140.2    (Orbital set 2)



 **********************************************************************************************************************************
 DATASETS  * FILE   NREC   LENGTH (MB)   RECORD NAMES
              1      20        3.30       500      610      700      900      950      970     1000      129      960     1100   
                                          VAR    BASINP    GEOM    SYMINP    ZMAT    AOBASIS   BASIS     P2S    ABASIS      S 
                                         1400     1410     1200     1210     1080     1600     1650     1300     1700     1380   
                                           T        V       H0       H01     AOSYM     SMH    MOLCAS    ERIS     OPER     JKOP   

              2       4        0.36       700     1000     2100     2140   
                                         GEOM     BASIS     RHF     MCSCF   

 PROGRAMS   *        TOTAL    CASSCF        HF       INT
 CPU TIMES  *         0.09      0.05      0.00      0.02
 REAL TIME  *         0.32 SEC
 DISK USED  *         8.10 MB      
 **********************************************************************************************************************************
   -->
   <time start="14:55:57" end="14:55:57" cpu="0.05" system="0.02" real="0.06"/>
   <storage units="megabyte" memory="401.84" sf="0.0" df="8.1" eaf="0.0"/>
  </jobstep><!--
  --><jobstep command="RS2" commandset="CIPRO">
   <!--

1PROGRAM * RS2 (Multireference RS Perturbation Theory)     Authors: H.-J. Werner (1993), P. Celani (1998)


 Level shift= 0.20

 Convergence thresholds:  THRVAR = 1.00D-08  THRDEN = 1.00D-06

 Number of optimized states:  1  Roots:   1
 Number of reference states:  1  Roots:   1

 Reference symmetry:                   1   Singlet 
 Number of electrons:                 10
 Maximum number of shells:             4
 Maximum number of spin couplings:     5

 Reference space:        3 conf        3 CSFs
 N elec internal:       15 conf       15 CSFs
 N-1 el internal:       23 conf       32 CSFs
 N-2 el internal:       25 conf       52 CSFs

 Number of electrons in valence space:                      8
 Maximum number of open shell orbitals in reference space:  2
 Maximum number of open shell orbitals in internal spaces:  6


 Number of core orbitals:           1 (   1 )
 Number of closed-shell orbitals:   3 (   3 )
 Number of active  orbitals:        2 (   2 )
 Number of external orbitals:      23 (  23 )

 Molecular orbitals read from record     2140.2  Type=MCSCF/NATURAL (state 1.1)

 Coulomb and exchange operators available. No transformation done.

 Number of p-space configurations:   1

 Reference wavefunction optimized for reference space (refopt=1)

 State     Reference Energy 
   1         -39.38543771

 Number of blocks in overlap matrix:     2   Smallest eigenvalue:  0.10D+01
 Number of N-2 electron functions:      22
 Number of N-1 electron functions:      32

 Number of internal configurations:                   15
 Number of singly external configurations:           736
 Number of doubly external configurations:          5865
 Total number of contracted configurations:         6616
 Total number of uncontracted configurations:      14551

 Weight factors for SA-density in H0:    1.000000

 FIMAX=  0.13D+00  FXMAX=  0.54D-13  DIAG=  F  T  NOREF=1  NOINT=0  IHPPD=2

 Nuclear energy:                      10.73455873
 Core energy:                        -35.53318677
 Zeroth-order valence energy:         -2.15562558
 Zeroth-order total energy:          -26.95425362
 First-order energy:                 -12.43118409

 Using uncontracted singles

 Diagonal Coupling coefficients finished.               Storage:     868 words, CPU-Time:      0.00 seconds.
 Energy denominators for pairs finished in 0 passes.    Storage:    1757 words, CPU-time:      0.00 seconds.

 A level shift of 0.20 is applied.

  ITER. STATE  ROOT     SQ.NORM     CORR.ENERGY   TOTAL ENERGY   ENERGY CHANGE       DEN1      VAR(S)    VAR(P)      TIME
    1     1     1     1.00639952    -0.00127990   -39.38671762    -0.00127990    -0.14640810  0.64D-02  0.41D-01     0.01
    2     1     1     1.04755542    -0.15570785   -39.54114556    -0.15442795    -0.00004639  0.25D-04  0.69D-04     0.01
    3     1     1     1.04758650    -0.15595216   -39.54138987    -0.00024430    -0.00019771  0.12D-05  0.27D-06     0.01
    4     1     1     1.04761193    -0.15596071   -39.54139842    -0.00000855     0.00000068  0.10D-07  0.16D-07     0.01
    5     1     1     1.04761377    -0.15596113   -39.54139884    -0.00000043    -0.00000305  0.42D-09  0.14D-09     0.01
    6     1     1     1.04761401    -0.15596118   -39.54139889    -0.00000005    -0.00000001  0.64D-11  0.65D-11     0.01

 Energies without level shift correction:

    6     1     1     1.04761401    -0.14643838   -39.53187609

 Energy contributions for state 1.1:
 ===================================

            Energy contr.      SQ.Norm of FOWF
 Space I     -0.00005059          0.00001878
 Space S     -0.01696648          0.00649444
 Space P     -0.12942131          0.04110079


 =====================================
 Analysis of CPU times by interactions
 =====================================

       I      S      P

 I   0.0%
 S   0.0%   0.0%
 P   0.0%   0.0%   0.0%

 Initialization: 100.0%
 Other:            0.0%

 Total CPU:        0.0 seconds
 =====================================



 Reference coefficients greater than 0.0500000
 =============================================
 22220           0.9964925
 22202          -0.0836825



 RESULTS FOR STATE 1.1
 =====================

 Coefficient of reference function:   C(0) = 1.00000000 (fixed)   1.00000000 (relaxed)

 Energy contributions of configuration classes

 CLASS          SQ.NORM        ECORR1        ECORR2
 +++++++++++++++++++++++++++++++++++++++++++++++++++
 Internals    0.00001878   -0.00005059    0.15585336
 Singles      0.00649444   -0.01696646   -0.03613958
 Pairs        0.04110079   -0.12942127   -0.27567496
 Total        1.04761401   -0.14643832   -0.15596118
 +++++++++++++++++++++++++++++++++++++++++++++++++++


 Reference energy                     -39.38543771
 Nuclear energy                        10.73455873
 Kinetic energy                        40.17045455
 One electron energy                  -76.26419733
 Two electron energy                   25.98823971
 Virial quotient                       -0.98434034
 Correlation energy                    -0.15596118
 !RSPT2 STATE 1.1 Energy              -39.541398894126
   --><property name="Energy" method="RSPT2" principal="true" stateSymmetry="1" stateNumber="1"
     value="-39.5413988941256"/><!--

 !RSPT2 STATE 1.1 Dipole moment         0.00000000     0.80243142    -0.24635305
 Dipole moment /Debye                   0.00000000     2.03944364    -0.62612599
   --><property name="Dipole moment" method="RSPT2" principal="true" stateSymmetry="1"
     stateNumber="1"
     value="0.186367619557301E-08 0.802431415155606 -0.246353053865468"/><!--


 **********************************************************************************************************************************
 DATASETS  * FILE   NREC   LENGTH (MB)   RECORD NAMES
              1      20        3.30       500      610      700      900      950      970     1000      129      960     1100   
                                          VAR    BASINP    GEOM    SYMINP    ZMAT    AOBASIS   BASIS     P2S    ABASIS      S 
                                         1400     1410     1200     1210     1080     1600     1650     1300     1700     1380   
                                           T        V       H0       H01     AOSYM     SMH    MOLCAS    ERIS     OPER     JKOP   

              2       4        0.36       700     1000     2100     2140   
                                         GEOM     BASIS     RHF     MCSCF   

 PROGRAMS   *        TOTAL       RS2    CASSCF        HF       INT
 CPU TIMES  *         0.11      0.02      0.05      0.00      0.02
 REAL TIME  *         0.37 SEC
 DISK USED  *         8.10 MB      
 **********************************************************************************************************************************
   -->
   <time start="14:55:57" end="14:55:57" cpu="0.02" system="0.02" real="0.05"/>
   <storage units="megabyte" memory="401.84" sf="0.0" df="8.1" eaf="0.0"/>
  </jobstep><!--
 SETTING ECAS(1)        =       -39.54139889  AU                              

 DO I                   =         2.00000000   
 SETTING R              =         1.10000000                                  
 SETTING BASIS          =    CC-PVDZ
  --><jobstep command="HF-SCF" commandset="SCFPRO">
   <!--


 Recomputing integrals since geometry changed

1PROGRAM * SEWARD (Integral evaluation for generally contracted gaussian basis sets)     Author: Roland Lindh, 1990

 Geometry written to block  1 of record 700

 Orientation using atomic masses  
 Molecule type: Asymmetric top
 Rotational constants:     174.8730236    187.3929053    395.8193513 GHz  (calculated with average atomic masses)

 Point group  C1  


   --><cml:symmetry pointGroup="C1"/><!--
   --><cml:atomArray>
    <cml:atom id="a1" elementType="C" x3="0.131476121858679E-15" y3="-0.104219793684312"
      z3="0.650835661490002E-01"/>
    <cml:atom id="a2" elementType="H" x3="-0.825248646756523E-15" y3="0.652847037277601"
      z3="0.863112270806474"/>
    <cml:atom id="a3" elementType="H" x3="0.518452820100698" y3="0.294538017733542"
      z3="-0.819336515691568"/>
    <cml:atom id="a4" elementType="H" x3="-0.518452820100699" y3="0.29453801773354"
      z3="-0.819336515691568"/>
   </cml:atomArray><!--
   --><cml:bondArray>
    <cml:bond atomRefs2="a1 a2"/>
    <cml:bond atomRefs2="a1 a3"/>
    <cml:bond atomRefs2="a1 a4"/>
   </cml:bondArray><!--

 ATOMIC COORDINATES

 NR  ATOM    CHARGE       X              Y              Z

   1  C1      6.00    0.000000000   -0.196946868    0.122990116
   2  H2      1.00   -0.000000000    1.233702106    1.631045812
   3  H3      1.00    0.979733842    0.556596189   -1.548321624
   4  H4      1.00   -0.979733842    0.556596189   -1.548321624

 Bond lengths in Bohr (Angstrom)

 1-2  2.078698745  1-3  2.078698745  1-4  2.078698745
     ( 1.100000000)     ( 1.100000000)     ( 1.100000000)

 Bond angles

  2-1-3  109.50000000   2-1-4  109.50000000   3-1-4   56.24012638

 NUCLEAR CHARGE:                    9
 NUMBER OF PRIMITIVE AOS:          48
 NUMBER OF SYMMETRY AOS:           47
 NUMBER OF CONTRACTIONS:           29   (  29A   )
 NUMBER OF CORE ORBITALS:           1   (   1A   )
 NUMBER OF VALENCE ORBITALS:        7   (   7A   )


 NUCLEAR REPULSION ENERGY    9.75868976


 Eigenvalues of metric

         1 0.139E-01 0.315E-01 0.392E-01 0.478E-01 0.602E-01 0.661E-01 0.125E+00 0.131E+00


 Contracted 2-electron integrals neglected if value below      1.0D-11
 AO integral compression algorithm  1   Integral accuracy      1.0D-11

     0.786 MB (compressed) written to integral file ( 65.1%)


 NUMBER OF SORTED TWO-ELECTRON INTEGRALS:      94830.     BUFFER LENGTH:  32768
 NUMBER OF SEGMENTS:   1  SEGMENT LENGTH:      94830      RECORD LENGTH: 524288

 Memory used in sort:       0.65 MW

 SORT1 READ      121049. AND WROTE       82680. INTEGRALS IN      1 RECORDS. CPU TIME:     0.00 SEC, REAL TIME:     0.00 SEC
 SORT2 READ       82680. AND WROTE       94830. INTEGRALS IN      3 RECORDS. CPU TIME:     0.00 SEC, REAL TIME:     0.00 SEC

 FILE SIZES:   FILE 1:     3.4 MBYTE,  FILE 4:     4.2 MBYTE,   TOTAL:      7.6 MBYTE

 OPERATOR DM      FOR CENTER  0  COORDINATES:    0.000000    0.000000    0.000000


 **********************************************************************************************************************************
 DATASETS  * FILE   NREC   LENGTH (MB)   RECORD NAMES
              1      19        3.06       500      610      700      900      950      970     1000      129      960     1100   
                                          VAR    BASINP    GEOM    SYMINP    ZMAT    AOBASIS   BASIS     P2S    ABASIS      S 
                                         1400     1410     1200     1210     1080     1600     1650     1300     1700   
                                           T        V       H0       H01     AOSYM     SMH    MOLCAS    ERIS     OPER   

              2       4        0.36       700     1000     2100     2140   
                                         GEOM     BASIS     RHF     MCSCF   

 PROGRAMS   *        TOTAL       INT       RS2    CASSCF        HF       INT
 CPU TIMES  *         0.14      0.03      0.02      0.05      0.00      0.02
 REAL TIME  *         0.41 SEC
 DISK USED  *         8.22 MB      
 **********************************************************************************************************************************

1PROGRAM * RHF-SCF (CLOSED SHELL)       Authors: W. Meyer, H.-J. Werner


 NUMBER OF ELECTRONS:       5+    5-    SPACE SYMMETRY=1    SPIN SYMMETRY: Singlet 
 CONVERGENCE THRESHOLDS:    1.00E-05 (Density)    1.00E-07 (Energy)
 MAX. NUMBER OF ITERATIONS:       60
 INTERPOLATION TYPE:            DIIS
 INTERPOLATION STEPS:              2 (START)      1 (STEP)
 LEVEL SHIFTS:                  0.00 (CLOSED)  0.00 (OPEN) 



 Molecular orbitals read from record     2100.2  Type=RHF/CANONICAL (state 1.1)

 Molecular orbital dump at record        2100.2

 ITERATION    DDIFF          GRAD             ENERGY        2-EL.EN.            DIPOLE MOMENTS         DIIS
    1      0.000D+00      0.000D+00       -39.30602857     54.281911   -0.00000    1.18731   -0.41308    0
    2      0.000D+00      0.277D-01       -39.39391756     49.228979    0.00000    0.52788   -0.02372    1
    3      0.734D-01      0.135D-01       -39.41490965     50.747350    0.00000    0.68197   -0.19055    2
    4      0.217D-01      0.990D-03       -39.41514626     50.713722    0.00000    0.66071   -0.17988    3
    5      0.307D-02      0.269D-03       -39.41517715     50.719632    0.00000    0.65056   -0.18437    4
    6      0.989D-03      0.956D-04       -39.41518373     50.719255    0.00000    0.64493   -0.18467    5
    7      0.565D-03      0.276D-04       -39.41518436     50.719235   -0.00000    0.64305   -0.18519    6
    8      0.214D-03      0.573D-05       -39.41518438     50.719363   -0.00000    0.64282   -0.18517    6
    9      0.340D-04      0.211D-05       -39.41518438     50.719327   -0.00000    0.64280   -0.18517    6
   10      0.103D-04      0.572D-06       -39.41518438     50.719370   -0.00000    0.64279   -0.18517    7
   11      0.294D-05      0.110D-06       -39.41518438     50.719359   -0.00000    0.64279   -0.18517    0

 Final occupancy:   5

 !RHF STATE 1.1 Energy                -39.415184379461
   --><property name="Energy" method="RHF" principal="true" stateSymmetry="1" stateNumber="1"
     value="-39.4151843794608"/><!--
 Nuclear energy                         9.75868976
 One-electron energy                  -74.53355371
 Two-electron energy                   25.35967957
 Virial quotient                       -0.99412082
 !RHF STATE 1.1 Dipole moment          -0.00000000     0.64279091    -0.18516591
 Dipole moment /Debye                  -0.00000000     1.63370453    -0.47061398
   --><property name="Dipole moment" method="RHF" principal="true" stateSymmetry="1"
     stateNumber="1"
     value="-0.342605718101074E-13 0.642790913021329 -0.185165914416814"/><!--

 Orbital energies:

         1.1          2.1          3.1          4.1          5.1          6.1          7.1
    -10.882101    -0.633145    -0.283368    -0.081197    -0.027286     0.427091     0.506853


 **********************************************************************************************************************************
 DATASETS  * FILE   NREC   LENGTH (MB)   RECORD NAMES
              1      19        3.06       500      610      700      900      950      970     1000      129      960     1100   
                                          VAR    BASINP    GEOM    SYMINP    ZMAT    AOBASIS   BASIS     P2S    ABASIS      S 
                                         1400     1410     1200     1210     1080     1600     1650     1300     1700   
                                           T        V       H0       H01     AOSYM     SMH    MOLCAS    ERIS     OPER   

              2       4        0.36       700     1000     2100     2140   
                                         GEOM     BASIS     RHF     MCSCF   

 PROGRAMS   *        TOTAL        HF       INT       RS2    CASSCF        HF       INT
 CPU TIMES  *         0.15      0.01      0.03      0.02      0.05      0.00      0.02
 REAL TIME  *         0.42 SEC
 DISK USED  *         8.22 MB      
 **********************************************************************************************************************************
   -->
   <time start="14:55:57" end="14:55:57" cpu="0.04" system="0.01" real="0.05"/>
   <storage units="megabyte" memory="401.84" sf="0.0" df="8.22" eaf="0.0"/>
  </jobstep><!--
  --><jobstep command="CASSCF" commandset="MULTI">
   <!--

1PROGRAM * MULTI (Direct Multiconfiguration SCF)       Authors: P.J. Knowles, H.-J. Werner (1984)     S.T. Elbert (1988)


 Number of closed-shell orbitals:  4 (  4 )
 Number of active  orbitals:       2 (  2 )
 Number of external orbitals:     23 ( 23 )

 State symmetry 1

 Number of electrons:     2    Spin symmetry=Singlet   Space symmetry=1
 Number of states:        1
 Number of CSFs:          3   (4 determinants, 4 intermediate states)

 Molecular orbitals read from record     2140.2  Type=MCSCF/NATURAL (state 1.1)

 Wavefunction dump at record             2140.2

 Convergence thresholds  0.10E-01 (gradient)  0.10E-05 (energy)  0.10E-02 (step length)

 Number of orbital rotations:     146     (   8 Core/Active   92 Core/Virtual   0 Active/Active   46 Active/Virtual)
 Total number of variables:       150


 ITER. MIC  NCI  NEG     ENERGY(VAR)     ENERGY(PROJ)   ENERGY CHANGE     GRAD(0)  GRAD(ORB)   GRAD(CI)     STEP       TIME

   1   40    7    0     -39.42005641     -39.42563726   -0.00558085    0.11821732 0.00000412 0.00000000  0.13D+00      0.01
   2   42    8    0     -39.42575155     -39.42584010   -0.00008855    0.00323657 0.00000012 0.00000000  0.24D+00      0.01
   3   34    8    0     -39.42585493     -39.42589493   -0.00004001    0.00262962 0.00001173 0.00000000  0.15D+00      0.02
   4   42    8    0     -39.42589743     -39.42590040   -0.00000297    0.00108719 0.00000001 0.00000000  0.38D-01      0.03
   5   29    8    0     -39.42590042     -39.42590042   -0.00000000    0.00003726 0.00000001 0.00000000  0.64D-03      0.03

 ** WVFN ****  CONVERGENCE REACHED, FINAL GRADIENT:  0.97D-08


 First order charge density matrix for state 1.1 saved on record  2140.2 (density set 1)

 Results for state 1.1
 =====================

 !MCSCF STATE 1.1 Energy              -39.425900418018
   --><property name="Energy" method="MCSCF" principal="true" stateSymmetry="1" stateNumber="1"
     value="-39.4259004180179"/><!--
 Nuclear energy                         9.75868976
 Kinetic energy                        39.66460382
 One electron energy                  -74.52567436
 Two electron energy                   25.34108418
 Virial ratio                           1.99398195

 !MCSCF STATE 1.1 Dipole moment        -0.00000000     0.63775873    -0.20030117
 Dipole moment /Debye                  -0.00000000     1.62091483    -0.50908146
   --><property name="Dipole moment" method="MCSCF" principal="true" stateSymmetry="1"
     stateNumber="1"
     value="-0.482600772999267E-13 0.637758726911404 -0.200301172966978"/><!--


 Natural orbital dump at molpro section                    2140.2    (Orbital set 2)



 **********************************************************************************************************************************
 DATASETS  * FILE   NREC   LENGTH (MB)   RECORD NAMES
              1      20        3.29       500      610      700      900      950      970     1000      129      960     1100   
                                          VAR    BASINP    GEOM    SYMINP    ZMAT    AOBASIS   BASIS     P2S    ABASIS      S 
                                         1400     1410     1200     1210     1080     1600     1650     1300     1700     1380   
                                           T        V       H0       H01     AOSYM     SMH    MOLCAS    ERIS     OPER     JKOP   

              2       4        0.36       700     1000     2100     2140   
                                         GEOM     BASIS     RHF     MCSCF   

 PROGRAMS   *        TOTAL    CASSCF        HF       INT       RS2    CASSCF        HF       INT
 CPU TIMES  *         0.19      0.04      0.01      0.03      0.02      0.05      0.00      0.02
 REAL TIME  *         0.47 SEC
 DISK USED  *         8.22 MB      
 **********************************************************************************************************************************
   -->
   <time start="14:55:57" end="14:55:57" cpu="0.04" system="0.01" real="0.05"/>
   <storage units="megabyte" memory="401.84" sf="0.0" df="8.22" eaf="0.0"/>
  </jobstep><!--
  --><jobstep command="RS2" commandset="CIPRO">
   <!--

1PROGRAM * RS2 (Multireference RS Perturbation Theory)     Authors: H.-J. Werner (1993), P. Celani (1998)


 Level shift= 0.20

 Convergence thresholds:  THRVAR = 1.00D-08  THRDEN = 1.00D-06

 Number of optimized states:  1  Roots:   1
 Number of reference states:  1  Roots:   1

 Reference symmetry:                   1   Singlet 
 Number of electrons:                 10
 Maximum number of shells:             4
 Maximum number of spin couplings:     5

 Reference space:        3 conf        3 CSFs
 N elec internal:       15 conf       15 CSFs
 N-1 el internal:       23 conf       32 CSFs
 N-2 el internal:       25 conf       52 CSFs

 Number of electrons in valence space:                      8
 Maximum number of open shell orbitals in reference space:  2
 Maximum number of open shell orbitals in internal spaces:  6


 Number of core orbitals:           1 (   1 )
 Number of closed-shell orbitals:   3 (   3 )
 Number of active  orbitals:        2 (   2 )
 Number of external orbitals:      23 (  23 )

 Molecular orbitals read from record     2140.2  Type=MCSCF/NATURAL (state 1.1)

 Coulomb and exchange operators available. No transformation done.

 Number of p-space configurations:   1

 Reference wavefunction optimized for reference space (refopt=1)

 State     Reference Energy 
   1         -39.42590042

 Number of blocks in overlap matrix:     2   Smallest eigenvalue:  0.10D+01
 Number of N-2 electron functions:      22
 Number of N-1 electron functions:      32

 Number of internal configurations:                   15
 Number of singly external configurations:           736
 Number of doubly external configurations:          5865
 Total number of contracted configurations:         6616
 Total number of uncontracted configurations:      14551

 Weight factors for SA-density in H0:    1.000000

 FIMAX=  0.14D+00  FXMAX=  0.43D-13  DIAG=  F  T  NOREF=1  NOINT=0  IHPPD=2

 Nuclear energy:                       9.75868976
 Core energy:                        -35.24337510
 Zeroth-order valence energy:         -2.03218733
 Zeroth-order total energy:          -27.51687267
 First-order energy:                 -11.90902775

 Using uncontracted singles

 Diagonal Coupling coefficients finished.               Storage:     868 words, CPU-Time:      0.00 seconds.
 Energy denominators for pairs finished in 0 passes.    Storage:    1757 words, CPU-time:      0.00 seconds.

 A level shift of 0.20 is applied.

  ITER. STATE  ROOT     SQ.NORM     CORR.ENERGY   TOTAL ENERGY   ENERGY CHANGE       DEN1      VAR(S)    VAR(P)      TIME
    1     1     1     1.00694768    -0.00138954   -39.42728995    -0.00138954    -0.14783671  0.69D-02  0.44D-01     0.00
    2     1     1     1.05085866    -0.15824597   -39.58414639    -0.15685643    -0.00030983  0.66D-04  0.11D-03     0.00
    3     1     1     1.05112352    -0.15876119   -39.58466161    -0.00051522    -0.00032830  0.29D-05  0.14D-05     0.00
    4     1     1     1.05123881    -0.15879470   -39.58469512    -0.00003351    -0.00000027  0.61D-07  0.61D-07     0.00
    5     1     1     1.05124860    -0.15879694   -39.58469736    -0.00000224    -0.00000747  0.24D-08  0.16D-08     0.00
    6     1     1     1.05125131    -0.15879750   -39.58469792    -0.00000056     0.00000001  0.89D-10  0.56D-10     0.00
    7     1     1     1.05125161    -0.15879755   -39.58469797    -0.00000005    -0.00000020  0.31D-11  0.28D-11     0.00

 Energies without level shift correction:

    7     1     1     1.05125161    -0.14854723   -39.57444765

 Energy contributions for state 1.1:
 ===================================

            Energy contr.      SQ.Norm of FOWF
 Space I     -0.00020494          0.00008485
 Space S     -0.01882217          0.00728861
 Space P     -0.12952012          0.04387815

 Reference coefficients greater than 0.0500000
 =============================================
 22220           0.9963829
 22202          -0.0849769



 RESULTS FOR STATE 1.1
 =====================

 Coefficient of reference function:   C(0) = 1.00000000 (fixed)   1.00000000 (relaxed)

 Energy contributions of configuration classes

 CLASS          SQ.NORM        ECORR1        ECORR2
 +++++++++++++++++++++++++++++++++++++++++++++++++++
 Internals    0.00008485   -0.00020494    0.15835937
 Singles      0.00728861   -0.01882216   -0.04024193
 Pairs        0.04387815   -0.12952012   -0.27691500
 Total        1.05125161   -0.14854721   -0.15879755
 +++++++++++++++++++++++++++++++++++++++++++++++++++


 Reference energy                     -39.42590042
 Nuclear energy                         9.75868976
 Kinetic energy                        39.76424287
 One electron energy                  -74.44401805
 Two electron energy                   25.10063032
 Virial quotient                       -0.99548476
 Correlation energy                    -0.15879755
 !RSPT2 STATE 1.1 Energy              -39.584697969581
   --><property name="Energy" method="RSPT2" principal="true" stateSymmetry="1" stateNumber="1"
     value="-39.5846979695814"/><!--

 !RSPT2 STATE 1.1 Dipole moment        -0.00000000     0.63452093    -0.19776692
 Dipole moment /Debye                  -0.00000000     1.61268572    -0.50264044
   --><property name="Dipole moment" method="RSPT2" principal="true" stateSymmetry="1"
     stateNumber="1"
     value="-0.491572928196238E-13 0.634520934706489 -0.197766916353652"/><!--


 **********************************************************************************************************************************
 DATASETS  * FILE   NREC   LENGTH (MB)   RECORD NAMES
              1      20        3.29       500      610      700      900      950      970     1000      129      960     1100   
                                          VAR    BASINP    GEOM    SYMINP    ZMAT    AOBASIS   BASIS     P2S    ABASIS      S 
                                         1400     1410     1200     1210     1080     1600     1650     1300     1700     1380   
                                           T        V       H0       H01     AOSYM     SMH    MOLCAS    ERIS     OPER     JKOP   

              2       4        0.36       700     1000     2100     2140   
                                         GEOM     BASIS     RHF     MCSCF   

 PROGRAMS   *        TOTAL       RS2    CASSCF        HF       INT       RS2    CASSCF        HF       INT
 CPU TIMES  *         0.20      0.01      0.04      0.01      0.03      0.02      0.05      0.00      0.02
 REAL TIME  *         0.48 SEC
 DISK USED  *         8.22 MB      
 **********************************************************************************************************************************
   -->
   <time start="14:55:57" end="14:55:57" cpu="0.01" system="0.0" real="0.01"/>
   <storage units="megabyte" memory="401.84" sf="0.0" df="8.22" eaf="0.0"/>
  </jobstep><!--
 SETTING ECAS(2)        =       -39.58469797  AU                              

 DO I                   =         3.00000000   
 SETTING R              =         1.20000000                                  
 SETTING BASIS          =    CC-PVDZ
  --><jobstep command="HF-SCF" commandset="SCFPRO">
   <!--


 Recomputing integrals since geometry changed

1PROGRAM * SEWARD (Integral evaluation for generally contracted gaussian basis sets)     Author: Roland Lindh, 1990

 Geometry written to block  1 of record 700

 Orientation using atomic masses  
 Molecule type: Asymmetric top
 Rotational constants:     146.9419157    157.4620941    332.5982049 GHz  (calculated with average atomic masses)

 Point group  C1  


   --><cml:symmetry pointGroup="C1"/><!--
   --><cml:atomArray>
    <cml:atom id="a1" elementType="C" x3="0.387976460524222E-15" y3="-0.113694320382886"
      z3="0.710002539807274E-01"/>
    <cml:atom id="a2" elementType="H" x3="-0.252222351042727E-14" y3="0.712196767939201"
      z3="0.941577022697971"/>
    <cml:atom id="a3" elementType="H" x3="0.565584894655306" y3="0.321314201163865"
      z3="-0.89382165348171"/>
    <cml:atom id="a4" elementType="H" x3="-0.565584894655308" y3="0.32131420116386"
      z3="-0.89382165348171"/>
   </cml:atomArray><!--
   --><cml:bondArray>
    <cml:bond atomRefs2="a1 a2"/>
    <cml:bond atomRefs2="a1 a3"/>
    <cml:bond atomRefs2="a1 a4"/>
   </cml:bondArray><!--

 ATOMIC COORDINATES

 NR  ATOM    CHARGE       X              Y              Z

   1  C1      6.00    0.000000000   -0.214851128    0.134171035
   2  H2      1.00   -0.000000000    1.345856843    1.779322705
   3  H3      1.00    1.068800555    0.607195842   -1.689078135
   4  H4      1.00   -1.068800555    0.607195842   -1.689078135

 Bond lengths in Bohr (Angstrom)

 1-2  2.267671358  1-3  2.267671358  1-4  2.267671358
     ( 1.200000000)     ( 1.200000000)     ( 1.200000000)

 Bond angles

  2-1-3  109.50000000   2-1-4  109.50000000   3-1-4   56.24012638

 NUCLEAR CHARGE:                    9
 NUMBER OF PRIMITIVE AOS:          48
 NUMBER OF SYMMETRY AOS:           47
 NUMBER OF CONTRACTIONS:           29   (  29A   )
 NUMBER OF CORE ORBITALS:           1   (   1A   )
 NUMBER OF VALENCE ORBITALS:        7   (   7A   )


 NUCLEAR REPULSION ENERGY    8.94546561


 Eigenvalues of metric

         1 0.154E-01 0.407E-01 0.517E-01 0.629E-01 0.753E-01 0.917E-01 0.139E+00 0.145E+00


 Contracted 2-electron integrals neglected if value below      1.0D-11
 AO integral compression algorithm  1   Integral accuracy      1.0D-11

     0.786 MB (compressed) written to integral file ( 62.9%)


 NUMBER OF SORTED TWO-ELECTRON INTEGRALS:      94830.     BUFFER LENGTH:  32768
 NUMBER OF SEGMENTS:   1  SEGMENT LENGTH:      94830      RECORD LENGTH: 524288

 Memory used in sort:       0.65 MW

 SORT1 READ      121049. AND WROTE       82680. INTEGRALS IN      1 RECORDS. CPU TIME:     0.00 SEC, REAL TIME:     0.00 SEC
 SORT2 READ       82680. AND WROTE       94830. INTEGRALS IN      3 RECORDS. CPU TIME:     0.00 SEC, REAL TIME:     0.01 SEC

 FILE SIZES:   FILE 1:     3.4 MBYTE,  FILE 4:     4.2 MBYTE,   TOTAL:      7.6 MBYTE

 OPERATOR DM      FOR CENTER  0  COORDINATES:    0.000000    0.000000    0.000000


 **********************************************************************************************************************************
 DATASETS  * FILE   NREC   LENGTH (MB)   RECORD NAMES
              1      19        3.05       500      610      700      900      950      970     1000      129      960     1100   
                                          VAR    BASINP    GEOM    SYMINP    ZMAT    AOBASIS   BASIS     P2S    ABASIS      S 
                                         1400     1410     1200     1210     1080     1600     1650     1300     1700   
                                           T        V       H0       H01     AOSYM     SMH    MOLCAS    ERIS     OPER   

              2       4        0.36       700     1000     2100     2140   
                                         GEOM     BASIS     RHF     MCSCF   

 PROGRAMS   *        TOTAL       INT       RS2    CASSCF        HF       INT       RS2    CASSCF        HF       INT
 CPU TIMES  *         0.24      0.04      0.01      0.04      0.01      0.03      0.02      0.05      0.00      0.02
 REAL TIME  *         0.54 SEC
 DISK USED  *         8.22 MB      
 **********************************************************************************************************************************

1PROGRAM * RHF-SCF (CLOSED SHELL)       Authors: W. Meyer, H.-J. Werner


 NUMBER OF ELECTRONS:       5+    5-    SPACE SYMMETRY=1    SPIN SYMMETRY: Singlet 
 CONVERGENCE THRESHOLDS:    1.00E-05 (Density)    1.00E-07 (Energy)
 MAX. NUMBER OF ITERATIONS:       60
 INTERPOLATION TYPE:            DIIS
 INTERPOLATION STEPS:              2 (START)      1 (STEP)
 LEVEL SHIFTS:                  0.00 (CLOSED)  0.00 (OPEN) 



 Molecular orbitals read from record     2100.2  Type=RHF/CANONICAL (state 1.1)

 Molecular orbital dump at record        2100.2

 ITERATION    DDIFF          GRAD             ENERGY        2-EL.EN.            DIPOLE MOMENTS         DIIS
    1      0.000D+00      0.000D+00       -39.41284419     49.375207   -0.00000    0.61226   -0.11915    0
    2      0.000D+00      0.484D-02       -39.41686717     49.016671   -0.00000    0.54259   -0.12451    1
    3      0.126D-01      0.144D-02       -39.41735170     49.160442   -0.00000    0.51947   -0.12740    2
    4      0.395D-02      0.587D-03       -39.41747151     49.095314   -0.00000    0.49178   -0.11884    3
    5      0.160D-02      0.237D-03       -39.41750560     49.105477   -0.00000    0.48074   -0.12194    4
    6      0.111D-02      0.848D-04       -39.41751156     49.104788   -0.00000    0.47469   -0.12183    5
    7      0.582D-03      0.227D-04       -39.41751188     49.105061   -0.00000    0.47407   -0.12240    6
    8      0.136D-03      0.442D-05       -39.41751189     49.105010   -0.00000    0.47416   -0.12237    7
    9      0.171D-04      0.109D-05       -39.41751189     49.105010   -0.00000    0.47419   -0.12236    7
   10      0.389D-05      0.307D-06       -39.41751189     49.105009   -0.00000    0.47420   -0.12236    0

 Final occupancy:   5

 !RHF STATE 1.1 Energy                -39.417511888429
   --><property name="Energy" method="RHF" principal="true" stateSymmetry="1" stateNumber="1"
     value="-39.4175118884285"/><!--
 Nuclear energy                         8.94546561
 One-electron energy                  -72.91548184
 Two-electron energy                   24.55250434
 Virial quotient                       -1.00178914
 !RHF STATE 1.1 Dipole moment          -0.00000000     0.47419624    -0.12235576
 Dipole moment /Debye                  -0.00000000     1.20520768    -0.31097694
   --><property name="Dipole moment" method="RHF" principal="true" stateSymmetry="1"
     stateNumber="1"
     value="-0.906241227893734E-14 0.47419623969487 -0.122355755967676"/><!--

 Orbital energies:

         1.1          2.1          3.1          4.1          5.1          6.1          7.1
    -10.925400    -0.594537    -0.264168    -0.079910    -0.041223     0.418511     0.495876


 **********************************************************************************************************************************
 DATASETS  * FILE   NREC   LENGTH (MB)   RECORD NAMES
              1      19        3.05       500      610      700      900      950      970     1000      129      960     1100   
                                          VAR    BASINP    GEOM    SYMINP    ZMAT    AOBASIS   BASIS     P2S    ABASIS      S 
                                         1400     1410     1200     1210     1080     1600     1650     1300     1700   
                                           T        V       H0       H01     AOSYM     SMH    MOLCAS    ERIS     OPER   

              2       4        0.36       700     1000     2100     2140   
                                         GEOM     BASIS     RHF     MCSCF   

 PROGRAMS   *        TOTAL        HF       INT       RS2    CASSCF        HF       INT       RS2    CASSCF        HF       INT
 CPU TIMES  *         0.25      0.01      0.04      0.01      0.04      0.01      0.03      0.02      0.05      0.00      0.02
 REAL TIME  *         0.56 SEC
 DISK USED  *         8.22 MB      
 **********************************************************************************************************************************
   -->
   <time start="14:55:57" end="14:55:57" cpu="0.05" system="0.02" real="0.08"/>
   <storage units="megabyte" memory="401.84" sf="0.0" df="8.22" eaf="0.0"/>
  </jobstep><!--
  --><jobstep command="CASSCF" commandset="MULTI">
   <!--

1PROGRAM * MULTI (Direct Multiconfiguration SCF)       Authors: P.J. Knowles, H.-J. Werner (1984)     S.T. Elbert (1988)


 Number of closed-shell orbitals:  4 (  4 )
 Number of active  orbitals:       2 (  2 )
 Number of external orbitals:     23 ( 23 )

 State symmetry 1

 Number of electrons:     2    Spin symmetry=Singlet   Space symmetry=1
 Number of states:        1
 Number of CSFs:          3   (4 determinants, 4 intermediate states)

 Molecular orbitals read from record     2140.2  Type=MCSCF/NATURAL (state 1.1)

 Wavefunction dump at record             2140.2

 Convergence thresholds  0.10E-01 (gradient)  0.10E-05 (energy)  0.10E-02 (step length)

 Number of orbital rotations:     146     (   8 Core/Active   92 Core/Virtual   0 Active/Active   46 Active/Virtual)
 Total number of variables:       150


 ITER. MIC  NCI  NEG     ENERGY(VAR)     ENERGY(PROJ)   ENERGY CHANGE     GRAD(0)  GRAD(ORB)   GRAD(CI)     STEP       TIME

   1   40    7    0     -39.42378637     -39.42859443   -0.00480805    0.10088131 0.00000291 0.00000000  0.21D+00      0.01
   2   46    8    0     -39.42876713     -39.42901236   -0.00024523    0.00352601 0.00000001 0.00000000  0.22D+00      0.01
   3   43    8    0     -39.42907593     -39.42955701   -0.00048108    0.00503271 0.00000000 0.00000000  0.26D+00      0.02
   4   38    8    0     -39.42997658     -39.43233672   -0.00236014    0.01151380 0.00000098 0.00000000  0.36D+00      0.03
   5   35    8    0     -39.43362182     -39.43497834   -0.00135652    0.01869168 0.00000034 0.00000000  0.21D+00      0.04
   6   25    8    0     -39.43506681     -39.43509115   -0.00002434    0.00368681 0.00000129 0.00000000  0.25D-01      0.05
   7   25    8    0     -39.43509119     -39.43509119   -0.00000000    0.00002370 0.00000001 0.00000000  0.21D-03      0.06

 ** WVFN ****  CONVERGENCE REACHED, FINAL GRADIENT:  0.11D-07


 First order charge density matrix for state 1.1 saved on record  2140.2 (density set 1)

 Results for state 1.1
 =====================

 !MCSCF STATE 1.1 Energy              -39.435091190956
   --><property name="Energy" method="MCSCF" principal="true" stateSymmetry="1" stateNumber="1"
     value="-39.4350911909557"/><!--
 Nuclear energy                         8.94546561
 Kinetic energy                        39.39677997
 One electron energy                  -72.92415099
 Two electron energy                   24.54359418
 Virial ratio                           2.00097245

 !MCSCF STATE 1.1 Dipole moment         0.00000000     0.48660818    -0.10076705
 Dipole moment /Debye                   0.00000000     1.23675362    -0.25610753
   --><property name="Dipole moment" method="MCSCF" principal="true" stateSymmetry="1"
     stateNumber="1"
     value="0.129666388824232E-11 0.486608181240131 -0.10076705239537"/><!--


 Natural orbital dump at molpro section                    2140.2    (Orbital set 2)



 **********************************************************************************************************************************
 DATASETS  * FILE   NREC   LENGTH (MB)   RECORD NAMES
              1      20        3.28       500      610      700      900      950      970     1000      129      960     1100   
                                          VAR    BASINP    GEOM    SYMINP    ZMAT    AOBASIS   BASIS     P2S    ABASIS      S 
                                         1400     1410     1200     1210     1080     1600     1650     1300     1700     1380   
                                           T        V       H0       H01     AOSYM     SMH    MOLCAS    ERIS     OPER     JKOP   

              2       4        0.36       700     1000     2100     2140   
                                         GEOM     BASIS     RHF     MCSCF   

 PROGRAMS   *        TOTAL    CASSCF        HF       INT       RS2    CASSCF        HF       INT       RS2    CASSCF        HF
 CPU TIMES  *         0.31      0.06      0.01      0.04      0.01      0.04      0.01      0.03      0.02      0.05      0.00
 REAL TIME  *         0.64 SEC
 DISK USED  *         8.22 MB      
 **********************************************************************************************************************************
   -->
   <time start="14:55:57" end="14:55:57" cpu="0.06" system="0.02" real="0.08"/>
   <storage units="megabyte" memory="401.84" sf="0.0" df="8.22" eaf="0.0"/>
  </jobstep><!--
  --><jobstep command="RS2" commandset="CIPRO">
   <!--

1PROGRAM * RS2 (Multireference RS Perturbation Theory)     Authors: H.-J. Werner (1993), P. Celani (1998)


 Level shift= 0.20

 Convergence thresholds:  THRVAR = 1.00D-08  THRDEN = 1.00D-06

 Number of optimized states:  1  Roots:   1
 Number of reference states:  1  Roots:   1

 Reference symmetry:                   1   Singlet 
 Number of electrons:                 10
 Maximum number of shells:             4
 Maximum number of spin couplings:     5

 Reference space:        3 conf        3 CSFs
 N elec internal:       15 conf       15 CSFs
 N-1 el internal:       23 conf       32 CSFs
 N-2 el internal:       25 conf       52 CSFs

 Number of electrons in valence space:                      8
 Maximum number of open shell orbitals in reference space:  2
 Maximum number of open shell orbitals in internal spaces:  6


 Number of core orbitals:           1 (   1 )
 Number of closed-shell orbitals:   3 (   3 )
 Number of active  orbitals:        2 (   2 )
 Number of external orbitals:      23 (  23 )

 Molecular orbitals read from record     2140.2  Type=MCSCF/NATURAL (state 1.1)

 Coulomb and exchange operators available. No transformation done.

 Number of p-space configurations:   1

 Reference wavefunction optimized for reference space (refopt=1)

 State     Reference Energy 
   1         -39.43509119

 Number of blocks in overlap matrix:     2   Smallest eigenvalue:  0.10D+01
 Number of N-2 electron functions:      22
 Number of N-1 electron functions:      32

 Number of internal configurations:                   15
 Number of singly external configurations:           736
 Number of doubly external configurations:          5865
 Total number of contracted configurations:         6616
 Total number of uncontracted configurations:      14551

 Weight factors for SA-density in H0:    1.000000

 FIMAX=  0.13D+00  FXMAX=  0.17D-13  DIAG=  F  T  NOREF=1  NOINT=0  IHPPD=2

 Nuclear energy:                       8.94546561
 Core energy:                        -35.00497443
 Zeroth-order valence energy:         -1.90904594
 Zeroth-order total energy:          -27.96855476
 First-order energy:                 -11.46653643

 Using uncontracted singles

 Diagonal Coupling coefficients finished.               Storage:     868 words, CPU-Time:      0.00 seconds.
 Energy denominators for pairs finished in 0 passes.    Storage:    1757 words, CPU-time:      0.00 seconds.

 A level shift of 0.20 is applied.

  ITER. STATE  ROOT     SQ.NORM     CORR.ENERGY   TOTAL ENERGY   ENERGY CHANGE       DEN1      VAR(S)    VAR(P)      TIME
    1     1     1     1.00647431    -0.00129486   -39.43638605    -0.00129486    -0.14453522  0.65D-02  0.46D-01     0.00
    2     1     1     1.05284856    -0.15582057   -39.59091177    -0.15452571    -0.00049281  0.77D-04  0.14D-03     0.00
    3     1     1     1.05347303    -0.15653887   -39.59163006    -0.00071829    -0.00046983  0.70D-05  0.25D-05     0.00
    4     1     1     1.05354021    -0.15657638   -39.59166757    -0.00003751    -0.00000336  0.33D-06  0.21D-06     0.00
    5     1     1     1.05357250    -0.15658424   -39.59167543    -0.00000786    -0.00001727  0.27D-07  0.16D-07     0.00
    6     1     1     1.05357684    -0.15658524   -39.59167643    -0.00000099    -0.00000042  0.26D-08  0.13D-08     0.00
    7     1     1     1.05357883    -0.15658569   -39.59167688    -0.00000045    -0.00000083  0.25D-09  0.15D-09     0.00

 Energies without level shift correction:

    7     1     1     1.05357883    -0.14586992   -39.58096112

 Energy contributions for state 1.1:
 ===================================

            Energy contr.      SQ.Norm of FOWF
 Space I     -0.00046999          0.00025359
 Space S     -0.01735791          0.00700418
 Space P     -0.12804203          0.04632105

 Reference coefficients greater than 0.0500000
 =============================================
 22220           0.9935816
 22202          -0.1131175



 RESULTS FOR STATE 1.1
 =====================

 Coefficient of reference function:   C(0) = 1.00000000 (fixed)   1.00000000 (relaxed)

 Energy contributions of configuration classes

 CLASS          SQ.NORM        ECORR1        ECORR2
 +++++++++++++++++++++++++++++++++++++++++++++++++++
 Internals    0.00025359   -0.00046988    0.15557637
 Singles      0.00700418   -0.01735770   -0.03726586
 Pairs        0.04632105   -0.12804196   -0.27489621
 Total        1.05357883   -0.14586955   -0.15658569
 +++++++++++++++++++++++++++++++++++++++++++++++++++


 Reference energy                     -39.43509119
 Nuclear energy                         8.94546561
 Kinetic energy                        39.49672405
 One electron energy                  -72.85533137
 Two electron energy                   24.31818888
 Virial quotient                       -1.00240407
 Correlation energy                    -0.15658569
 !RSPT2 STATE 1.1 Energy              -39.591676880792
   --><property name="Energy" method="RSPT2" principal="true" stateSymmetry="1" stateNumber="1"
     value="-39.591676880792"/><!--

 !RSPT2 STATE 1.1 Dipole moment         0.00000000     0.48252839    -0.10217674
 Dipole moment /Debye                   0.00000000     1.22638449    -0.25969035
   --><property name="Dipole moment" method="RSPT2" principal="true" stateSymmetry="1"
     stateNumber="1"
     value="0.124699642972681E-11 0.482528385108132 -0.10217673584064"/><!--


 **********************************************************************************************************************************
 DATASETS  * FILE   NREC   LENGTH (MB)   RECORD NAMES
              1      20        3.28       500      610      700      900      950      970     1000      129      960     1100   
                                          VAR    BASINP    GEOM    SYMINP    ZMAT    AOBASIS   BASIS     P2S    ABASIS      S 
                                         1400     1410     1200     1210     1080     1600     1650     1300     1700     1380   
                                           T        V       H0       H01     AOSYM     SMH    MOLCAS    ERIS     OPER     JKOP   

              2       4        0.36       700     1000     2100     2140   
                                         GEOM     BASIS     RHF     MCSCF   

 PROGRAMS   *        TOTAL       RS2    CASSCF        HF       INT       RS2    CASSCF        HF       INT       RS2    CASSCF
 CPU TIMES  *         0.33      0.01      0.06      0.01      0.04      0.01      0.04      0.01      0.03      0.02      0.05
 REAL TIME  *         0.66 SEC
 DISK USED  *         8.22 MB      
 **********************************************************************************************************************************
   -->
   <time start="14:55:57" end="14:55:57" cpu="0.02" system="0.01" real="0.02"/>
   <storage units="megabyte" memory="401.84" sf="0.0" df="8.22" eaf="0.0"/>
  </jobstep><!--
 SETTING ECAS(3)        =       -39.59167688  AU                              

 DO I                   =         4.00000000   
 SETTING R              =         1.30000000                                  
 SETTING BASIS          =    CC-PVDZ
  --><jobstep command="HF-SCF" commandset="SCFPRO">
   <!--


 Recomputing integrals since geometry changed

1PROGRAM * SEWARD (Integral evaluation for generally contracted gaussian basis sets)     Author: Roland Lindh, 1990

 Geometry written to block  1 of record 700

 Orientation using atomic masses  
 Molecule type: Asymmetric top
 Rotational constants:     125.2049459    134.1688849    283.3972870 GHz  (calculated with average atomic masses)

 Point group  C1  


   --><cml:symmetry pointGroup="C1"/><!--
   --><cml:atomArray>
    <cml:atom id="a1" elementType="C" x3="0.720159516214003E-15" y3="-0.12316884708146"
      z3="0.769169418124547E-01"/>
    <cml:atom id="a2" elementType="H" x3="-0.457381256827369E-14" y3="0.771546498600801"
      z3="1.02004177458947"/>
    <cml:atom id="a3" elementType="H" x3="0.612716969209914" y3="0.348090384594188"
      z3="-0.968306791271853"/>
    <cml:atom id="a4" elementType="H" x3="-0.612716969209918" y3="0.348090384594181"
      z3="-0.968306791271853"/>
   </cml:atomArray><!--
   --><cml:bondArray>
    <cml:bond atomRefs2="a1 a2"/>
    <cml:bond atomRefs2="a1 a3"/>
    <cml:bond atomRefs2="a1 a4"/>
   </cml:bondArray><!--

 ATOMIC COORDINATES

 NR  ATOM    CHARGE       X              Y              Z

   1  C1      6.00    0.000000000   -0.232755389    0.145351955
   2  H2      1.00   -0.000000000    1.458011580    1.927599597
   3  H3      1.00    1.157867268    0.657795496   -1.829834647
   4  H4      1.00   -1.157867268    0.657795496   -1.829834647

 Bond lengths in Bohr (Angstrom)

 1-2  2.456643971  1-3  2.456643971  1-4  2.456643971
     ( 1.300000000)     ( 1.300000000)     ( 1.300000000)

 Bond angles

  2-1-3  109.50000000   2-1-4  109.50000000   3-1-4   56.24012638

 NUCLEAR CHARGE:                    9
 NUMBER OF PRIMITIVE AOS:          48
 NUMBER OF SYMMETRY AOS:           47
 NUMBER OF CONTRACTIONS:           29   (  29A   )
 NUMBER OF CORE ORBITALS:           1   (   1A   )
 NUMBER OF VALENCE ORBITALS:        7   (   7A   )


 NUCLEAR REPULSION ENERGY    8.25735287


 Eigenvalues of metric

         1 0.166E-01 0.480E-01 0.621E-01 0.723E-01 0.890E-01 0.121E+00 0.149E+00 0.167E+00


 Contracted 2-electron integrals neglected if value below      1.0D-11
 AO integral compression algorithm  1   Integral accuracy      1.0D-11

     0.786 MB (compressed) written to integral file ( 60.8%)


 NUMBER OF SORTED TWO-ELECTRON INTEGRALS:      94830.     BUFFER LENGTH:  32768
 NUMBER OF SEGMENTS:   1  SEGMENT LENGTH:      94830      RECORD LENGTH: 524288

 Memory used in sort:       0.65 MW

 SORT1 READ      121049. AND WROTE       82680. INTEGRALS IN      1 RECORDS. CPU TIME:     0.00 SEC, REAL TIME:     0.00 SEC
 SORT2 READ       82680. AND WROTE       94830. INTEGRALS IN      3 RECORDS. CPU TIME:     0.00 SEC, REAL TIME:     0.00 SEC

 FILE SIZES:   FILE 1:     3.4 MBYTE,  FILE 4:     4.2 MBYTE,   TOTAL:      7.6 MBYTE

 OPERATOR DM      FOR CENTER  0  COORDINATES:    0.000000    0.000000    0.000000


 **********************************************************************************************************************************
 DATASETS  * FILE   NREC   LENGTH (MB)   RECORD NAMES
              1      19        3.04       500      610      700      900      950      970     1000      129      960     1100   
                                          VAR    BASINP    GEOM    SYMINP    ZMAT    AOBASIS   BASIS     P2S    ABASIS      S 
                                         1400     1410     1200     1210     1080     1600     1650     1300     1700   
                                           T        V       H0       H01     AOSYM     SMH    MOLCAS    ERIS     OPER   

              2       4        0.36       700     1000     2100     2140   
                                         GEOM     BASIS     RHF     MCSCF   

 PROGRAMS   *        TOTAL       INT       RS2    CASSCF        HF       INT       RS2    CASSCF        HF       INT       RS2
 CPU TIMES  *         0.35      0.02      0.01      0.06      0.01      0.04      0.01      0.04      0.01      0.03      0.02
 REAL TIME  *         0.69 SEC
 DISK USED  *         8.22 MB      
 **********************************************************************************************************************************

1PROGRAM * RHF-SCF (CLOSED SHELL)       Authors: W. Meyer, H.-J. Werner


 NUMBER OF ELECTRONS:       5+    5-    SPACE SYMMETRY=1    SPIN SYMMETRY: Singlet 
 CONVERGENCE THRESHOLDS:    1.00E-05 (Density)    1.00E-07 (Energy)
 MAX. NUMBER OF ITERATIONS:       60
 INTERPOLATION TYPE:            DIIS
 INTERPOLATION STEPS:              2 (START)      1 (STEP)
 LEVEL SHIFTS:                  0.00 (CLOSED)  0.00 (OPEN) 



 Molecular orbitals read from record     2100.2  Type=RHF/CANONICAL (state 1.1)

 Molecular orbital dump at record        2100.2

 ITERATION    DDIFF          GRAD             ENERGY        2-EL.EN.            DIPOLE MOMENTS         DIIS
    1      0.000D+00      0.000D+00       -39.39486798     47.874807   -0.00000    0.43096   -0.05218    0
    2      0.000D+00      0.427D-02       -39.39826732     47.583865   -0.00000    0.35564   -0.05795    1
    3      0.115D-01      0.130D-02       -39.39871482     47.700817   -0.00000    0.33229   -0.06237    2
    4      0.389D-02      0.540D-03       -39.39882491     47.636872    0.00000    0.30360   -0.05373    3
    5      0.141D-02      0.246D-03       -39.39886122     47.648210   -0.00000    0.29274   -0.05827    4
    6      0.106D-02      0.892D-04       -39.39886794     47.647343    0.00000    0.28671   -0.05857    5
    7      0.552D-03      0.257D-04       -39.39886837     47.647514    0.00000    0.28615   -0.05931    6
    8      0.145D-03      0.526D-05       -39.39886838     47.647439   -0.00000    0.28624   -0.05924    7
    9      0.200D-04      0.147D-05       -39.39886839     47.647440   -0.00000    0.28628   -0.05921    8
   10      0.530D-05      0.357D-06       -39.39886839     47.647445    0.00000    0.28628   -0.05920    0

 Final occupancy:   5

 !RHF STATE 1.1 Energy                -39.398868385772
   --><property name="Energy" method="RHF" principal="true" stateSymmetry="1" stateNumber="1"
     value="-39.3988683857721"/><!--
 Nuclear energy                         8.25735287
 One-electron energy                  -71.47994370
 Two-electron energy                   23.82372244
 Virial quotient                       -1.00682097
 !RHF STATE 1.1 Dipole moment           0.00000000     0.28627843    -0.05919872
 Dipole moment /Debye                   0.00000000     0.72759952    -0.15045829
   --><property name="Dipole moment" method="RHF" principal="true" stateSymmetry="1"
     stateNumber="1"
     value="0.488302974444021E-14 0.286278426508944 -0.591987247583676E-01"/><!--

 Orbital energies:

         1.1          2.1          3.1          4.1          5.1          6.1          7.1
    -10.967832    -0.564621    -0.247559    -0.079995    -0.056243     0.406979     0.481371


 **********************************************************************************************************************************
 DATASETS  * FILE   NREC   LENGTH (MB)   RECORD NAMES
              1      19        3.04       500      610      700      900      950      970     1000      129      960     1100   
                                          VAR    BASINP    GEOM    SYMINP    ZMAT    AOBASIS   BASIS     P2S    ABASIS      S 
                                         1400     1410     1200     1210     1080     1600     1650     1300     1700   
                                           T        V       H0       H01     AOSYM     SMH    MOLCAS    ERIS     OPER   

              2       4        0.36       700     1000     2100     2140   
                                         GEOM     BASIS     RHF     MCSCF   

 PROGRAMS   *        TOTAL        HF       INT       RS2    CASSCF        HF       INT       RS2    CASSCF        HF       INT
 CPU TIMES  *         0.35      0.00      0.02      0.01      0.06      0.01      0.04      0.01      0.04      0.01      0.03
 REAL TIME  *         0.70 SEC
 DISK USED  *         8.22 MB      
 **********************************************************************************************************************************
   -->
   <time start="14:55:57" end="14:55:58" cpu="0.02" system="0.01" real="0.04"/>
   <storage units="megabyte" memory="401.84" sf="0.0" df="8.22" eaf="0.0"/>
  </jobstep><!--
  --><jobstep command="CASSCF" commandset="MULTI">
   <!--

1PROGRAM * MULTI (Direct Multiconfiguration SCF)       Authors: P.J. Knowles, H.-J. Werner (1984)     S.T. Elbert (1988)


 Number of closed-shell orbitals:  4 (  4 )
 Number of active  orbitals:       2 (  2 )
 Number of external orbitals:     23 ( 23 )

 State symmetry 1

 Number of electrons:     2    Spin symmetry=Singlet   Space symmetry=1
 Number of states:        1
 Number of CSFs:          3   (4 determinants, 4 intermediate states)

 Molecular orbitals read from record     2140.2  Type=MCSCF/NATURAL (state 1.1)

 Wavefunction dump at record             2140.2

 Convergence thresholds  0.10E-01 (gradient)  0.10E-05 (energy)  0.10E-02 (step length)

 Number of orbital rotations:     146     (   8 Core/Active   92 Core/Virtual   0 Active/Active   46 Active/Virtual)
 Total number of variables:       150


 ITER. MIC  NCI  NEG     ENERGY(VAR)     ENERGY(PROJ)   ENERGY CHANGE     GRAD(0)  GRAD(ORB)   GRAD(CI)     STEP       TIME

   1   45    7    0     -39.41546099     -39.41923059   -0.00376960    0.08663351 0.00000008 0.00000000  0.61D-01      0.01
   2   24    8    0     -39.41927625     -39.41928212   -0.00000587    0.00174435 0.00000115 0.00000000  0.11D-01      0.01
   3   25    8    0     -39.41928212     -39.41928212   -0.00000000    0.00000332 0.00000000 0.00000000  0.34D-04      0.02

 ** WVFN ****  CONVERGENCE REACHED, FINAL GRADIENT:  0.16D-08


 First order charge density matrix for state 1.1 saved on record  2140.2 (density set 1)

 Results for state 1.1
 =====================

 !MCSCF STATE 1.1 Energy              -39.419282121619
   --><property name="Energy" method="MCSCF" principal="true" stateSymmetry="1" stateNumber="1"
     value="-39.419282121619"/><!--
 Nuclear energy                         8.25735287
 Kinetic energy                        39.19299561
 One electron energy                  -71.49784145
 Two electron energy                   23.82120646
 Virial ratio                           2.00577365

 !MCSCF STATE 1.1 Dipole moment         0.00000000     0.31264039    -0.01334580
 Dipole moment /Debye                   0.00000000     0.79460057    -0.03391941
   --><property name="Dipole moment" method="MCSCF" principal="true" stateSymmetry="1"
     stateNumber="1"
     value="0.553321919054595E-10 0.312640392898994 -0.133457978918883E-01"/><!--


 Natural orbital dump at molpro section                    2140.2    (Orbital set 2)



 **********************************************************************************************************************************
 DATASETS  * FILE   NREC   LENGTH (MB)   RECORD NAMES
              1      20        3.27       500      610      700      900      950      970     1000      129      960     1100   
                                          VAR    BASINP    GEOM    SYMINP    ZMAT    AOBASIS   BASIS     P2S    ABASIS      S 
                                         1400     1410     1200     1210     1080     1600     1650     1300     1700     1380   
                                           T        V       H0       H01     AOSYM     SMH    MOLCAS    ERIS     OPER     JKOP   

              2       4        0.36       700     1000     2100     2140   
                                         GEOM     BASIS     RHF     MCSCF   

 PROGRAMS   *        TOTAL    CASSCF        HF       INT       RS2    CASSCF        HF       INT       RS2    CASSCF        HF
 CPU TIMES  *         0.37      0.02      0.00      0.02      0.01      0.06      0.01      0.04      0.01      0.04      0.01
 REAL TIME  *         0.72 SEC
 DISK USED  *         8.22 MB      
 **********************************************************************************************************************************
   -->
   <time start="14:55:58" end="14:55:58" cpu="0.02" system="0.01" real="0.02"/>
   <storage units="megabyte" memory="401.84" sf="0.0" df="8.22" eaf="0.0"/>
  </jobstep><!--
  --><jobstep command="RS2" commandset="CIPRO">
   <!--

1PROGRAM * RS2 (Multireference RS Perturbation Theory)     Authors: H.-J. Werner (1993), P. Celani (1998)


 Level shift= 0.20

 Convergence thresholds:  THRVAR = 1.00D-08  THRDEN = 1.00D-06

 Number of optimized states:  1  Roots:   1
 Number of reference states:  1  Roots:   1

 Reference symmetry:                   1   Singlet 
 Number of electrons:                 10
 Maximum number of shells:             4
 Maximum number of spin couplings:     5

 Reference space:        3 conf        3 CSFs
 N elec internal:       15 conf       15 CSFs
 N-1 el internal:       23 conf       32 CSFs
 N-2 el internal:       25 conf       52 CSFs

 Number of electrons in valence space:                      8
 Maximum number of open shell orbitals in reference space:  2
 Maximum number of open shell orbitals in internal spaces:  6


 Number of core orbitals:           1 (   1 )
 Number of closed-shell orbitals:   3 (   3 )
 Number of active  orbitals:        2 (   2 )
 Number of external orbitals:      23 (  23 )

 Molecular orbitals read from record     2140.2  Type=MCSCF/NATURAL (state 1.1)

 Coulomb and exchange operators available. No transformation done.

 Number of p-space configurations:   1

 Reference wavefunction optimized for reference space (refopt=1)

 State     Reference Energy 
   1         -39.41928212

 Number of blocks in overlap matrix:     2   Smallest eigenvalue:  0.10D+01
 Number of N-2 electron functions:      22
 Number of N-1 electron functions:      32

 Number of internal configurations:                   15
 Number of singly external configurations:           736
 Number of doubly external configurations:          5865
 Total number of contracted configurations:         6616
 Total number of uncontracted configurations:      14551

 Weight factors for SA-density in H0:    1.000000

 FIMAX=  0.12D+00  FXMAX=  0.67D-11  DIAG=  F  T  NOREF=1  NOINT=0  IHPPD=2

 Nuclear energy:                       8.25735287
 Core energy:                        -34.80152983
 Zeroth-order valence energy:         -1.83088303
 Zeroth-order total energy:          -28.37505999
 First-order energy:                 -11.04422213

 Using uncontracted singles

 Diagonal Coupling coefficients finished.               Storage:     868 words, CPU-Time:      0.00 seconds.
 Energy denominators for pairs finished in 0 passes.    Storage:    1757 words, CPU-time:      0.00 seconds.

 A level shift of 0.20 is applied.

  ITER. STATE  ROOT     SQ.NORM     CORR.ENERGY   TOTAL ENERGY   ENERGY CHANGE       DEN1      VAR(S)    VAR(P)      TIME
    1     1     1     1.00710155    -0.00142031   -39.42070243    -0.00142031    -0.14455373  0.71D-02  0.49D-01     0.00
    2     1     1     1.05606684    -0.15649110   -39.57577322    -0.15507079    -0.00038374  0.82D-04  0.13D-03     0.01
    3     1     1     1.05664078    -0.15714270   -39.57642482    -0.00065160    -0.00042647  0.63D-05  0.23D-05     0.01
    4     1     1     1.05670146    -0.15717494   -39.57645706    -0.00003224    -0.00000048  0.29D-06  0.17D-06     0.01
    5     1     1     1.05672877    -0.15718155   -39.57646367    -0.00000661    -0.00001444  0.21D-07  0.11D-07     0.01
    6     1     1     1.05673252    -0.15718233   -39.57646445    -0.00000078    -0.00000025  0.18D-08  0.83D-09     0.01
    7     1     1     1.05673410    -0.15718269   -39.57646481    -0.00000035    -0.00000065  0.16D-09  0.83D-10     0.01

 Energies without level shift correction:

    7     1     1     1.05673410    -0.14583587   -39.56511799

 Energy contributions for state 1.1:
 ===================================

            Energy contr.      SQ.Norm of FOWF
 Space I     -0.00059638          0.00033562
 Space S     -0.01769598          0.00755545
 Space P     -0.12754350          0.04884304


 =====================================
[...]
 Dipole moment /Debye                  -0.00000000    -6.73822544    -3.99502352
   --><property name="Dipole moment" method="RHF" principal="true" stateSymmetry="1"
     stateNumber="1"
     value="-0.487522348879832E-14 -2.65119549428854 -1.57186612983905"/><!--

 Orbital energies:

         1.1          2.1          3.1          4.1          5.1          6.1          7.1
    -11.257954    -0.574879    -0.176464    -0.160797    -0.063347     0.057682     0.197097


 **********************************************************************************************************************************
 DATASETS  * FILE   NREC   LENGTH (MB)   RECORD NAMES
              1      19        2.93       500      610      700      900      950      970     1000      129      960     1100   
                                          VAR    BASINP    GEOM    SYMINP    ZMAT    AOBASIS   BASIS     P2S    ABASIS      S 
                                         1400     1410     1200     1210     1080     1600     1650     1300     1700   
                                           T        V       H0       H01     AOSYM     SMH    MOLCAS    ERIS     OPER   

              2       4        0.36       700     1000     2100     2140   
                                         GEOM     BASIS     RHF     MCSCF   

 PROGRAMS   *        TOTAL        HF       INT       RS2    CASSCF        HF       INT       RS2    CASSCF        HF       INT
 CPU TIMES  *         1.73      0.00      0.04      0.03      0.03      0.01      0.03      0.01      0.03      0.00      0.05
 REAL TIME  *         2.43 SEC
 DISK USED  *         8.22 MB      
 **********************************************************************************************************************************
   -->
   <time start="14:55:59" end="14:55:59" cpu="0.04" system="0.01" real="0.05"/>
   <storage units="megabyte" memory="401.84" sf="0.0" df="8.22" eaf="0.0"/>
  </jobstep><!--
  --><jobstep command="CASSCF" commandset="MULTI">
   <!--

1PROGRAM * MULTI (Direct Multiconfiguration SCF)       Authors: P.J. Knowles, H.-J. Werner (1984)     S.T. Elbert (1988)


 Number of closed-shell orbitals:  4 (  4 )
 Number of active  orbitals:       2 (  2 )
 Number of external orbitals:     23 ( 23 )

 State symmetry 1

 Number of electrons:     2    Spin symmetry=Singlet   Space symmetry=1
 Number of states:        1
 Number of CSFs:          3   (4 determinants, 4 intermediate states)

 Molecular orbitals read from record     2140.2  Type=MCSCF/NATURAL (state 1.1)

 Wavefunction dump at record             2140.2

 Convergence thresholds  0.10E-01 (gradient)  0.10E-05 (energy)  0.10E-02 (step length)

 Number of orbital rotations:     146     (   8 Core/Active   92 Core/Virtual   0 Active/Active   46 Active/Virtual)
 Total number of variables:       150


 ITER. MIC  NCI  NEG     ENERGY(VAR)     ENERGY(PROJ)   ENERGY CHANGE     GRAD(0)  GRAD(ORB)   GRAD(CI)     STEP       TIME

   1   33    7    0     -39.03132576     -39.03145286   -0.00012710    0.01078738 0.00000138 0.00000000  0.21D-01      0.01
   2   36    8    0     -39.03145131     -39.03145143   -0.00000012    0.00026505 0.00000003 0.00000000  0.11D-02      0.02
   3   35    4    0     -39.03145143     -39.03145143   -0.00000000    0.00000059 0.00000000 0.00000000  0.92D-05      0.02

 ** WVFN ****  CONVERGENCE REACHED, FINAL GRADIENT:  0.46D-08


 First order charge density matrix for state 1.1 saved on record  2140.2 (density set 1)

 Results for state 1.1
 =====================

 !MCSCF STATE 1.1 Energy              -39.031451434270
   --><property name="Energy" method="MCSCF" principal="true" stateSymmetry="1" stateNumber="1"
     value="-39.0314514342698"/><!--
 Nuclear energy                         3.57818624
 Kinetic energy                        38.84691658
 One electron energy                  -60.81078486
 Two electron energy                   18.20114718
 Virial ratio                           2.00475031

 !MCSCF STATE 1.1 Dipole moment        -0.00000000    -1.23512234     3.39264697
 Dipole moment /Debye                  -0.00000000    -3.13916223     8.62268368
   --><property name="Dipole moment" method="MCSCF" principal="true" stateSymmetry="1"
     stateNumber="1"
     value="-0.394591479655027E-10 -1.2351223380693 3.39264696595104"/><!--


 Natural orbital dump at molpro section                    2140.2    (Orbital set 2)



 **********************************************************************************************************************************
 DATASETS  * FILE   NREC   LENGTH (MB)   RECORD NAMES
              1      20        3.15       500      610      700      900      950      970     1000      129      960     1100   
                                          VAR    BASINP    GEOM    SYMINP    ZMAT    AOBASIS   BASIS     P2S    ABASIS      S 
                                         1400     1410     1200     1210     1080     1600     1650     1300     1700     1380   
                                           T        V       H0       H01     AOSYM     SMH    MOLCAS    ERIS     OPER     JKOP   

              2       4        0.36       700     1000     2100     2140   
                                         GEOM     BASIS     RHF     MCSCF   

 PROGRAMS   *        TOTAL    CASSCF        HF       INT       RS2    CASSCF        HF       INT       RS2    CASSCF        HF
 CPU TIMES  *         1.75      0.02      0.00      0.04      0.03      0.03      0.01      0.03      0.01      0.03      0.00
 REAL TIME  *         2.46 SEC
 DISK USED  *         8.22 MB      
 **********************************************************************************************************************************
   -->
   <time start="14:55:59" end="14:55:59" cpu="0.02" system="0.01" real="0.03"/>
   <storage units="megabyte" memory="401.84" sf="0.0" df="8.22" eaf="0.0"/>
  </jobstep><!--
  --><jobstep command="RS2" commandset="CIPRO">
   <!--

1PROGRAM * RS2 (Multireference RS Perturbation Theory)     Authors: H.-J. Werner (1993), P. Celani (1998)


 Level shift= 0.20

 Convergence thresholds:  THRVAR = 1.00D-08  THRDEN = 1.00D-06

 Number of optimized states:  1  Roots:   1
 Number of reference states:  1  Roots:   1

 Reference symmetry:                   1   Singlet 
 Number of electrons:                 10
 Maximum number of shells:             4
 Maximum number of spin couplings:     5

 Reference space:        3 conf        3 CSFs
 N elec internal:       15 conf       15 CSFs
 N-1 el internal:       23 conf       32 CSFs
 N-2 el internal:       25 conf       52 CSFs

 Number of electrons in valence space:                      8
 Maximum number of open shell orbitals in reference space:  2
 Maximum number of open shell orbitals in internal spaces:  6


 Number of core orbitals:           1 (   1 )
 Number of closed-shell orbitals:   3 (   3 )
 Number of active  orbitals:        2 (   2 )
 Number of external orbitals:      23 (  23 )

 Molecular orbitals read from record     2140.2  Type=MCSCF/NATURAL (state 1.1)

 Coulomb and exchange operators available. No transformation done.

 Number of p-space configurations:   3

 Reference wavefunction optimized for reference space (refopt=1)

 State     Reference Energy 
   1         -39.03145143

 Number of blocks in overlap matrix:     2   Smallest eigenvalue:  0.10D+01
 Number of N-2 electron functions:      22
 Number of N-1 electron functions:      32

 Number of internal configurations:                   15
 Number of singly external configurations:           736
 Number of doubly external configurations:          5865
 Total number of contracted configurations:         6616
 Total number of uncontracted configurations:      14551

 Weight factors for SA-density in H0:    1.000000

 FIMAX=  0.52D-01  FXMAX=  0.42D-11  DIAG=  F  T  NOREF=1  NOINT=0  IHPPD=2

 Nuclear energy:                       3.57818624
 Core energy:                        -33.41768454
 Zeroth-order valence energy:         -1.43203364
 Zeroth-order total energy:          -31.27153194
 First-order energy:                  -7.75991949

 Using uncontracted singles

 Diagonal Coupling coefficients finished.               Storage:     868 words, CPU-Time:      0.00 seconds.
 Energy denominators for pairs finished in 0 passes.    Storage:    1757 words, CPU-time:      0.00 seconds.

 A level shift of 0.20 is applied.

  ITER. STATE  ROOT     SQ.NORM     CORR.ENERGY   TOTAL ENERGY   ENERGY CHANGE       DEN1      VAR(S)    VAR(P)      TIME
    1     1     1     1.00972190    -0.00194438   -39.03339581    -0.00194438    -0.13161844  0.97D-02  0.74D-01     0.00
    2     1     1     1.08663070    -0.15755841   -39.18900985    -0.15561403    -0.00750836  0.59D-03  0.10D-01     0.00
    3     1     1     1.12166678    -0.17273671   -39.20418815    -0.01517830    -0.00029003  0.43D-04  0.12D-03     0.00
    4     1     1     1.12660534    -0.17382800   -39.20527944    -0.00109129    -0.00004677  0.55D-05  0.50D-06     0.00
    5     1     1     1.12676298    -0.17386303   -39.20531446    -0.00003503    -0.00001958  0.55D-06  0.63D-07     0.00
    6     1     1     1.12681957    -0.17387474   -39.20532618    -0.00001172    -0.00000543  0.69D-07  0.67D-08     0.00
    7     1     1     1.12683790    -0.17387846   -39.20532989    -0.00000371    -0.00000216  0.74D-08  0.82D-09     0.01
    8     1     1     1.12684430    -0.17387974   -39.20533117    -0.00000129    -0.00000064  0.91D-09  0.91D-10     0.01
    9     1     1     1.12684643    -0.17388017   -39.20533160    -0.00000043    -0.00000025  0.10D-09  0.11D-10     0.01
   10     1     1     1.12684717    -0.17388032   -39.20533175    -0.00000015    -0.00000008  0.12D-10  0.12D-11     0.01

 Energies without level shift correction:

   10     1     1     1.12684717    -0.14851088   -39.17996232

 Energy contributions for state 1.1:
 ===================================

            Energy contr.      SQ.Norm of FOWF
 Space I     -0.00019500          0.00018604
 Space S     -0.01287758          0.01375406
 Space P     -0.13543830          0.11290708


 =====================================
 Analysis of CPU times by interactions
 =====================================

       I      S      P

 I   0.0%
 S   0.0%   0.0%
 P   0.0% 100.0%   0.0%

 Initialization:   0.0%
 Other:            0.0%

 Total CPU:        0.0 seconds
 =====================================



 Reference coefficients greater than 0.0500000
 =============================================
 22220           0.7935806
 22202          -0.6084651

 Coefficients of singly external configurations greater than 0.0500000
 =====================================================================

 22\/\   7.1    -0.0654423

 Coefficients of doubly external configurations greater than 0.0500000
 =====================================================================

 PAIR    I     J   ->   K     L     NP  SYM  REF     COEFFICIENTS

   9    4.1   4.1      7.1   7.1     1   1    1   -0.21069585
   4    3.1   3.1      7.1   7.1     1   1    1   -0.11776189
   7    4.1   3.1      7.1   8.1     1   1    1    0.06595503
   1    2.1   2.1      8.1   8.1     1   1    1   -0.05410436



 RESULTS FOR STATE 1.1
 =====================

 Coefficient of reference function:   C(0) = 1.00000000 (fixed)   1.00000000 (relaxed)

 Energy contributions of configuration classes

 CLASS          SQ.NORM        ECORR1        ECORR2
 +++++++++++++++++++++++++++++++++++++++++++++++++++
 Internals    0.00018604   -0.00019500    0.17342363
 Singles      0.01375406   -0.01287754   -0.03015476
 Pairs        0.11290708   -0.13543828   -0.31714919
 Total        1.12684717   -0.14851083   -0.17388032
 +++++++++++++++++++++++++++++++++++++++++++++++++++


 Reference energy                     -39.03145143
 Nuclear energy                         3.57818624
 Kinetic energy                        38.97324441
 One electron energy                  -60.87568480
 Two electron energy                   18.09216680
 Virial quotient                       -1.00595504
 Correlation energy                    -0.17388032
 !RSPT2 STATE 1.1 Energy              -39.205331750400
   --><property name="Energy" method="RSPT2" principal="true" stateSymmetry="1" stateNumber="1"
     value="-39.2053317504002"/><!--

 !RSPT2 STATE 1.1 Dipole moment        -0.00000000    -1.16253176     3.15549411
 Dipole moment /Debye                  -0.00000000    -2.95466746     8.01994071
   --><property name="Dipole moment" method="RSPT2" principal="true" stateSymmetry="1"
     stateNumber="1"
     value="-0.283761542908822E-10 -1.1625317573647 3.15549410531568"/><!--


 **********************************************************************************************************************************
 DATASETS  * FILE   NREC   LENGTH (MB)   RECORD NAMES
              1      20        3.15       500      610      700      900      950      970     1000      129      960     1100   
                                          VAR    BASINP    GEOM    SYMINP    ZMAT    AOBASIS   BASIS     P2S    ABASIS      S 
                                         1400     1410     1200     1210     1080     1600     1650     1300     1700     1380   
                                           T        V       H0       H01     AOSYM     SMH    MOLCAS    ERIS     OPER     JKOP   

              2       4        0.36       700     1000     2100     2140   
                                         GEOM     BASIS     RHF     MCSCF   

 PROGRAMS   *        TOTAL       RS2    CASSCF        HF       INT       RS2    CASSCF        HF       INT       RS2    CASSCF
 CPU TIMES  *         1.78      0.02      0.02      0.00      0.04      0.03      0.03      0.01      0.03      0.01      0.03
 REAL TIME  *         2.48 SEC
 DISK USED  *         8.22 MB      
 **********************************************************************************************************************************
   -->
   <time start="14:55:59" end="14:55:59" cpu="0.03" system="0.0" real="0.02"/>
   <storage units="megabyte" memory="401.84" sf="0.0" df="8.22" eaf="0.0"/>
  </jobstep><!--
 SETTING ECAS(21)       =       -39.20533175  AU                              
                                                                                                                                                                                                                                                                

   DISTS       ECAS
     1.0   -39.54139889
     1.1   -39.58469797
     1.2   -39.59167688
     1.3   -39.57646481
     1.4   -39.55084454
     1.5   -39.52065570
     1.6   -39.48902767
     1.7   -39.45755623
     1.8   -39.42707473
     1.9   -39.39805776
     2.0   -39.37079443
     2.1   -39.34546330
     2.2   -39.32216711
     2.3   -39.30094850
     2.4   -39.28179655
     2.5   -39.26465465
     2.6   -39.24943210
     2.7   -39.23601669
     2.8   -39.22428335
     2.9   -39.21410000
     3.0   -39.20533175
                                                  
-->
<table xmlns="http://www.w3.org/1999/xhtml" id="table1">
<thead><tr><th>DISTS</th><th>ECAS</th></tr></thead><tbody>
<tr><td>    1.0</td><td>   -39.54139889</td></tr>
<tr><td>    1.1</td><td>   -39.58469797</td></tr>
<tr><td>    1.2</td><td>   -39.59167688</td></tr>
<tr><td>    1.3</td><td>   -39.57646481</td></tr>
<tr><td>    1.4</td><td>   -39.55084454</td></tr>
<tr><td>    1.5</td><td>   -39.52065570</td></tr>
<tr><td>    1.6</td><td>   -39.48902767</td></tr>
<tr><td>    1.7</td><td>   -39.45755623</td></tr>
<tr><td>    1.8</td><td>   -39.42707473</td></tr>
<tr><td>    1.9</td><td>   -39.39805776</td></tr>
<tr><td>    2.0</td><td>   -39.37079443</td></tr>
<tr><td>    2.1</td><td>   -39.34546330</td></tr>
<tr><td>    2.2</td><td>   -39.32216711</td></tr>
<tr><td>    2.3</td><td>   -39.30094850</td></tr>
<tr><td>    2.4</td><td>   -39.28179655</td></tr>
<tr><td>    2.5</td><td>   -39.26465465</td></tr>
<tr><td>    2.6</td><td>   -39.24943210</td></tr>
<tr><td>    2.7</td><td>   -39.23601669</td></tr>
<tr><td>    2.8</td><td>   -39.22428335</td></tr>
<tr><td>    2.9</td><td>   -39.21410000</td></tr>
<tr><td>    3.0</td><td>   -39.20533175</td></tr>
</tbody></table>
<!--

 Dump information in style MOLDEN to molpro.molden                                                                   

 Molecular orbitals read from record     2140.2  Type=MCSCF/NATURAL (state 1.1)
 Occupation numbers read from record     2140.2  Type=MCSCF/NATURAL (state 1.1)
 Orbital energies read from record       2140.2  Type=MCSCF/NATURAL (state 1.1)
 Redundancy group numbers read from rec  2140.2  Type=MCSCF/NATURAL (state 1.1)

 DUMP ORBITAL  1.1 AS ORBITAL    1  occ=    2.0000  eig=  -11.2009  GROUP=   2
 DUMP ORBITAL  2.1 AS ORBITAL    2  occ=    2.0000  eig=   -0.5396  GROUP=   2
 DUMP ORBITAL  3.1 AS ORBITAL    3  occ=    2.0000  eig=   -0.0929  GROUP=   2
 DUMP ORBITAL  4.1 AS ORBITAL    4  occ=    2.0000  eig=   -0.0597  GROUP=   2
 DUMP ORBITAL  5.1 AS ORBITAL    5  occ=    1.2595  eig=   -0.0621  GROUP=   3
 DUMP ORBITAL  6.1 AS ORBITAL    6  occ=    0.7405  eig=    0.0412  GROUP=   3

 Total charge:      10.000000

 **********************************************************************************************************************************

        RS2             CASSCF          HF-SCF          RS2             CASSCF          HF-SCF          RS2             CASSCF  
    -39.20533175    -39.03145143    -38.93535148    -39.21410000    -39.04198564    -38.95003861    -39.22428335    -39.05365714
 **********************************************************************************************************************************
 Variable memory released
  --><stm:metadataList>
   <stm:metadata name="dc:date" content="2024-05-08T14:55:59+02:00"/>
   <stm:metadata name="dc:creator" content="ospite"/>
   <stm:metadata name="cmlm:insilico" content="Molpro"/>
  </stm:metadataList><!--
  --><platform>
   <version major="2010" minor="1" integer_bits="64" parallelism="serial">
    2010.1
    <date year="2024" month="5" day="8" hour="14" minute="55" second="57">
     2024-05-08T14:55:57
    </date>
   </version>
   <licence id="polimi"/>
   <parallel processes="1" nodes="1" all_processes="1" openmp="1"/>
   <machine hostname="molmod" architecture="x86_64">
    Linux-3.10.0-1160.108.1.el7.x86_64/molmod(x86_64) 64 bit serial version
    <sysinfo name="cpu MHz" content="2419.200"/>
    <sysinfo name="MemTotal" content="7066832 kB"/>
    <sysinfo name="vendor_id" content="GenuineIntel"/>
    <sysinfo name="cpu family" content="6"/>
    <sysinfo name="model name" content="13th Gen Intel(R) Core(TM) i9-13900HX"/>
    <sysinfo name="flags"
      content="fpu vme de pse tsc msr pae mce cx8 apic sep mtrr pge mca cmov pat pse36 clflush mmx fxsr sse sse2 ht syscall nx rdtscp lm constant_tsc rep_good nopl xtopology nonstop_tsc eagerfpu pni pclmulqdq ssse3 cx16 pcid sse4_1 sse4_2 movbe popcnt aes rdrand hypervisor lahf_lm abm 3dnowprefetch invpcid_single rsb_ctxsw ibrs_enhanced fsgsbase bmi1 bmi2 invpcid rdseed clflushopt arat md_clear flush_l1d arch_capabilities"/>
    <sysinfo name="MemTotal" content="7066832 kB"/>
    <sysinfo name="cache size" content="36864 KB"/>
    <sysinfo name="ncpu" content="8"/>
   </machine>
  </platform><!--
  -->
  <input>
   <p> memory, 50, m </p>
   <p> nosym </p>
   <p> dists = [1.0, 1.1, 1.2, 1.3, 1.4, 1.5, 1.6, 1.7, 1.8, 1.9, 2.0, 2.1, 2.2, 2.3, 2.4, 2.5, 2.6, 2.7, 2.8, 2.9, 3.0.] </p>
   <p> geometry={angstrom </p>
   <p> C1 </p>
   <p> H2 1 r </p>
   <p> H3 1 r 2 109.5 </p>
   <p> H4 1 r 2 109.5 3 300. </p>
   <p> } </p>
   <p> do i=1,#dists </p>
   <p> r=dists(i) </p>
   <p> basis=cc-pvdz </p>
   <p> hf </p>
   <p> {casscf;closed,4;occ,6;wf,10,1,0;} </p>
   <p> {rs2,shift=0.2} </p>
   <p> ecas(i)=energy </p>
   <p> end do </p>
   <p> {table,dists,ecas} </p>
   <p> put,molden,molpro.molden </p>
  </input>
  <!--
 --></job><!--
--></molpro>
