[Molden Format]
[Molpro variables]
_NUMVAR=  676.0000000000000    
_EV2006= 0.3674930886769165E-01
_EV= 0.3674932534394180E-01
_KJOULE= 0.3808798324128737E-03
_KJOULE/MOL= 0.3808798324128737E-03
_CM= 0.4556335267302901E-05
_CM-1= 0.4556335267302901E-05
_KCAL= 0.1593601117815568E-02
_KCAL/MOL= 0.1593601117815568E-02
_KELVIN2006= 0.3166828861084835E-05
_KELVIN= 0.3166814820820034E-05
_HERTZ2006= 0.1519829850815779E-15
_HERTZ= 0.1519829846011223E-15
_HZ2006= 0.1519829850815779E-15
_HZ= 0.1519829846011223E-15
_TOA2006= 0.5291772490000000    
_TOA= 0.5291772090000000    
_TOANG2006= 0.5291772490000000    
_TOANG= 0.5291772090000000    
_TORAD= 0.1745329251994330E-01
_TOCM=  219474.6306700000    
_TODEBYE=  2.541580000000000    
_TOEV2006=  27.21139610000000    
_TOEV=  27.21138390000000    
_TOHERTZ2006=  6579683899900000.    
_TOHERTZ=  6579683920700000.    
_TOHZ2006=  6579683899900000.    
_TOHZ=  6579683920700000.    
_TOK2006=  315773.3000000000    
_TOK=  315774.7000000000    
_TOKCAL=  627.5096000000000    
_TOKELVIN2006=  315773.3000000000    
_TOKELVIN=  315774.7000000000    
_TOKJ=  2625.500000000000    
_TOKJOULE=  2625.500000000000    
_ANG2006=  1.889725988578923    
_ANG=  1.889726131421507    
_ANGSTROM2006=  1.889725988578923    
_ANGSTROM=  1.889726131421507    
_IGNORE_UNDEF=  2.000000000000000    
_STRICTCHECK=  0.000000000000000    
_SEW_ONEEL=  0.000000000000000    
_CPPDONE=FALSE
_DKROLL_DONE=  0.000000000000000    
_FOCKDONE=  0.000000000000000    
_GRADONE=FALSE
_HESSDONE=FALSE
_INTDONE=TRUE
_SCFDONE=TRUE
_MODUL_CUDA=FALSE
_MODUL_SLATER=FALSE
_MODUL_MRCC=FALSE
_MRCC_EXEC=
_FITC_AO_SAVED=FALSE
_FITC_MO_SAVED=FALSE
_SHARED_FS=TRUE
_LSTYP=SEWARD
_INTYP=INTS
_GEOMTYP=ZMAT
_GRADTYP=ALASKA
_DIRECT=FALSE
_SYNCM=  0.000000000000000    
_BASIS=CC-PVDZ
_ZORIENT=  1.000000000000000    
_NELEC=  10.00000000000000    
!SPIN=  0.000000000000000    
_QSDSTEP=  0.000000000000000    
_QSDIRC=  0.000000000000000    
_PROGRAM=RS2
_CPUSTEP= 0.2000000000000002E-01
_SYSSTEP=  0.000000000000000    
_WALLSTEP= 0.1000000000000000E-01
!DFMP2=  0.000000000000000    
!DFSCF=  0.000000000000000    
!SCSGRD=  0.000000000000000    
_BASINP=  610.0000000000000    
_CPUTOT=  1.810000000000000    
_DFTEXFAC=  1.000000000000000    
_DMX=-0.2837615429088225E-10
_DMY= -1.162531757364701    
_DMZ=  3.155494105315678    
_EMP2= -39.20533175040017    
_ENERGR= -39.03145143426979    
_ENERGU= -39.17996231545483    
_ENERGY= -39.20533175040017    
_ENUC=  3.578186244545256    
_GRADEXFAC=  9999.000000000000    
_GRADMETHOD=TRUE
!GRID_FREEZE= -1.000000000000000    
_ITERATIONS=  9.000000000000000    
_LASTNELEC=  2.000000000000000    
_LASTSPIN=  0.000000000000000    
_LASTSYM=  1.000000000000000    
_MPP_PROG=  0.000000000000000    
_NPROC_MPP=  1.000000000000000    
_NPROC_SMP=  1.000000000000000    
_NUMSTEP=  0.000000000000000    
_ORBITAL=  2140.200000000000    
_PI=  3.141592653589793    
!MCACT=  2.000000000000000    
!MCCLOSED=  4.000000000000000    
!MCFREEZE=  0.000000000000000    
!MCMS2=  0.000000000000000    
!MCNEL=  2.000000000000000    
!MCNSTSYM=  1.000000000000000    
!MCSTATE=  1.000000000000000    
!MCSYM=  1.000000000000000    
!MCWEIGHT=  1.000000000000000    
_SEIG_MIN= 0.4063390087955210E-01
_SEWPROP=TRUE
_STATUS=  1.000000000000000    
_SYSTOT= 0.6300000000000000    
_VERSION=  2010001.000000000    
_WALLTOT=  2.560000000000000    
_DATE=08-May-24
_LASTORB=MCSCF
_MACHINE=Linux-3.10.0-1160.108.1.el7.x86_64/molmod(x86_64) 64 bit serial version
_OUTPUT=/home/ospite/QM/lab6/lab6.2/ch3_scan/ch3.xml
_PGROUP=C1
_TIME=15:03:51
_LIBMOL=/usr/local/molpro/molpros_2010_1_Linux_x86_64_i8/lib/
!SURFREC=  0.000000000000000    
!POLYREC=  0.000000000000000    
!DIPREC=  0.000000000000000    
!VSCFREC=  0.000000000000000    
!VCIREC=  0.000000000000000    
!PVCIREC=  0.000000000000000    
!VMP2REC=  0.000000000000000    
!VMCSCFREC=  0.000000000000000    
!GAREC=  0.000000000000000    
!SCFORB=  21002.00000000000    
!MCORB=  21402.00000000000    
!CIOCC=  6.000000000000000    
!CICORE=  1.000000000000000    
!CICLOS=  4.000000000000000    
!CIISTSYM=  1.000000000000000    
!CIISTMS2=  0.000000000000000    
!CIISTNEL=  8.000000000000000    
!NEWMOL=  0.000000000000000    
!NEWSYM=  0.000000000000000    
_SLFILES=slscratch
_NGSSTO=  9.000000000000000    
_SIN=SIN
_COS=COS
_TAN=TAN
_ACOS=ACOS
_ASIN=ASIN
_ATAN=ATAN
_COSH=COSH
_SINH=SINH
_TANH=TANH
_ABS=ABS
_MOD=MOD
_ERF=ERF
_REFC=REFC
_ERFC=ERFC
_HYPOT=HYPOT
_J0=J0
_J1=J1
_JN=JN
_GAMMA=GAMMA
_LGAMMA=LGAMMA
_Y0=Y0
_Y1=Y1
_YN=YN
_EXP=EXP
_LOG=LOG
_LOG10=LOG10
_SQRT=SQRT
_INT=INT
_NINT=NINT
_MAX=MAX
_MIN=MIN
_COSMO=  0.000000000000000    
_COSMOIT=  0.000000000000000    
_COSMOES=  0.000000000000000    
_COSMOEDS=  0.000000000000000    
_COSMOEC=  0.000000000000000    
_COSMOEDCORR=  0.000000000000000    
_FEPSI=  1.000000000000000    
_SL_IsMM=  0.000000000000000    
_SL_NSYM=  0.000000000000000    
_SL_System_BitSw=  0.000000000000000    
_SL_Unique_atoms=  0.000000000000000    
_SL_GRAD=  0.000000000000000    
_SL_MAXUPD_Hess=  5.000000000000000    
_SL_N_PRINT_COD=  5.000000000000000    
_SL_PRINT_CODES=  0.000000000000000    
_SL_BasType=  0.000000000000000    
_SL_Energy_Pred=  0.000000000000000    
_SL_New_Coords=  0.000000000000000    
_SL_Total_Nuclea=  0.000000000000000    
_SL_Highest_Mltp=  0.000000000000000    
_SL_Ref_Geom=  0.000000000000000    
!LATTICE= -1.000000000000000    
!NEWLATTICE=  0.000000000000000    
!LATGRAD_VAR=FALSE
!SEW_LATTICE=  1.000000000000000    
!LOCAL=  0.000000000000000    
!SAVEDOM= -1.000000000000000    
!RESTDOM= -1.000000000000000    
!SAVEDOM_HF= -1.000000000000000    
!RESTDOM_HF= -1.000000000000000    
!HESSREC=  0.000000000000000    
!FREQREC=  0.000000000000000    
!NMODREC=  0.000000000000000    
!GTASKS=  0.000000000000000    
!HTASKS=  0.000000000000000    
!THRCHG= 0.1000000000000000    
!DEBUG= -1.000000000000000    
!CFIT_CPHF=  0.000000000000000    
!RDOMAUX_CPHF=  3.000000000000000    
!THRAO_CPHF= 0.1000000000000000E-09
!THRMO_CPHF= 0.1000000000000000E-08
!THROV_CPHF= 0.1000000000000000E-11
!THRSW_CPHF= 0.1000000000000000E-09
!THRPROD_CPHF= 0.1000000000000000E-08
!THRAOPR_CPHF= 0.1000000000000000E-11
!CFIT_SCFGRD=  0.000000000000000    
!RDOMAUX_SCFGRD=  5.000000000000000    
!THRAO_SCFGRD= 0.1000000000000000E-09
!THRMO_SCFGRD= 0.1000000000000000E-08
!THROV_SCFGRD= 0.1000000000000000E-11
!THRSW_SCFGRD= 0.1000000000000000E-09
!THRPROD_SCFGRD= 0.1000000000000000E-08
!THRAOPR_SCFGRD= 0.1000000000000000E-11
!LOCFIT_SCF=  0.000000000000000    
!LOCFIT_MP2= -1.000000000000000    
_RIDOM=  0.000000000000000    
!CC2_METHOD=  0.000000000000000    
_BASIS2006=FALSE
_SVDDEL= -1.000000000000000    
_SVDDELA= -1.000000000000000    
_SVDDELP= -1.000000000000000    
_SVDDELF= -1.000000000000000    
_SVDDELS= -1.000000000000000    
_SVDDEL_ABS= -1.000000000000000    
_SVDDELA_ABS= -1.000000000000000    
_SVDDELP_ABS= -1.000000000000000    
_SVDDELF_ABS= -1.000000000000000    
_SVDDELS_ABS= -1.000000000000000    
_MAXBASIS=  0.000000000000000    
!OPT_CONICAL=  0.000000000000000    
!CLEARSP_JGRID=  0.000000000000000    
DISTS=  1.000000000000000    
I=  21.00000000000000    
R=  3.000000000000000    
GX1= 0.2363193852862645E-14
GY1=-0.5371278205543721    
GZ1= 0.3354275882123612    
GX2=-0.1400746858466197E-13
GY2=  3.364642107721620    
GZ2=  4.448306761346044    
GX3=  2.672001387418527    
GY3=  1.517989605840456    
GZ3= -4.222695338536918    
GX4= -2.672001387418541    
GY4=  1.517989605840432    
GZ4= -4.222695338536917    
ECAS= -39.54139889412563    
[Atoms] Angs
C     1    6         0.0000000000       -0.2842358010        0.1775006350
H     2    1        -0.0000000000        1.7804919198        2.3539425567
H     3    1         1.4139622366        0.8032855029       -2.2345541337
H     4    1        -1.4139622366        0.8032855029       -2.2345541337
[GTO]
  1 0
 s    9  1.00
  0.6665000000D+04  0.6920001793D-03
  0.1000000000D+04  0.5329001381D-02
  0.2280000000D+03  0.2707700701D-01
  0.6471000000D+02  0.1017180264D+00
  0.2106000000D+02  0.2747400712D+00
  0.7495000000D+01  0.4485641162D+00
  0.2797000000D+01  0.2850740738D+00
  0.5215000000D+00  0.1520400394D-01
  0.1596000000D+00 -0.3191000827D-02
 s    9  1.00
  0.6665000000D+04 -0.1460000642D-03
  0.1000000000D+04 -0.1154000508D-02
  0.2280000000D+03 -0.5725002519D-02
  0.6471000000D+02 -0.2331201026D-01
  0.2106000000D+02 -0.6395502813D-01
  0.7495000000D+01 -0.1499810660D+00
  0.2797000000D+01 -0.1272620560D+00
  0.5215000000D+00  0.5445292395D+00
  0.1596000000D+00  0.5804962554D+00
 s    9  1.00
  0.6665000000D+04  0.0000000000D+00
  0.1000000000D+04  0.0000000000D+00
  0.2280000000D+03  0.0000000000D+00
  0.6471000000D+02  0.0000000000D+00
  0.2106000000D+02  0.0000000000D+00
  0.7495000000D+01  0.0000000000D+00
  0.2797000000D+01  0.0000000000D+00
  0.5215000000D+00  0.0000000000D+00
  0.1596000000D+00  0.1000000000D+01
 p    4  1.00
  0.9439000000D+01  0.3810902127D-01
  0.2002000000D+01  0.2094801169D+00
  0.5456000000D+00  0.5085572839D+00
  0.1517000000D+00  0.4688422617D+00
 p    4  1.00
  0.9439000000D+01  0.0000000000D+00
  0.2002000000D+01  0.0000000000D+00
  0.5456000000D+00  0.0000000000D+00
  0.1517000000D+00  0.1000000000D+01
 d    1  1.00
  0.5500000000D+00  0.1000000000D+01
  
  2 0
 s    4  1.00
  0.1301000000D+02  0.1968498999D-01
  0.1962000000D+01  0.1379769298D+00
  0.4446000000D+00  0.4781477569D+00
  0.1220000000D+00  0.5012397451D+00
 s    4  1.00
  0.1301000000D+02  0.0000000000D+00
  0.1962000000D+01  0.0000000000D+00
  0.4446000000D+00  0.0000000000D+00
  0.1220000000D+00  0.1000000000D+01
 p    1  1.00
  0.7270000000D+00  0.1000000000D+01
  
  3 0
 s    4  1.00
  0.1301000000D+02  0.1968498999D-01
  0.1962000000D+01  0.1379769298D+00
  0.4446000000D+00  0.4781477569D+00
  0.1220000000D+00  0.5012397451D+00
 s    4  1.00
  0.1301000000D+02  0.0000000000D+00
  0.1962000000D+01  0.0000000000D+00
  0.4446000000D+00  0.0000000000D+00
  0.1220000000D+00  0.1000000000D+01
 p    1  1.00
  0.7270000000D+00  0.1000000000D+01
  
  4 0
 s    4  1.00
  0.1301000000D+02  0.1968498999D-01
  0.1962000000D+01  0.1379769298D+00
  0.4446000000D+00  0.4781477569D+00
  0.1220000000D+00  0.5012397451D+00
 s    4  1.00
  0.1301000000D+02  0.0000000000D+00
  0.1962000000D+01  0.0000000000D+00
  0.4446000000D+00  0.0000000000D+00
  0.1220000000D+00  0.1000000000D+01
 p    1  1.00
  0.7270000000D+00  0.1000000000D+01


[MO]
 Sym=      1.1
 Ene=     -11.2009
 Spin= Alpha
 Occup=    2.000000
1 0.99982563582765
2 -0.001359473524310
3 0.000916995443852
4 0.000000000000053
5 0.000374486391053
6 -0.000445844163707
7 -0.000000000000124
8 -0.000353715384239
9 0.000393777789729
10 0.000111187475922
11 0.000124004009688
12 -0.000235191485610
13 0.000000000000052
14 0.000000000000080
15 0.000295552662421
16 -0.000252541572247
17 0.000339653512385
18 -0.000000000000035
19 -0.000033218097953
20 -0.000039228759513
21 -0.000150522617032
22 0.000339179212350
23 -0.000018183005685
24 -0.000024011711614
25 0.000055021857531
26 -0.000150522616864
27 0.000339179212075
28 0.000018183005652
29 -0.000024011711425
30 0.000055021857583
 Sym=      2.1
 Ene=      -0.5396
 Spin= Alpha
 Occup=    2.000000
1 0.004665721620933
2 1.01650792553355
3 -0.023351272527419
4 0.000000000003409
5 -0.013202976878094
6 0.032571686393874
7 -0.000000000001486
8 -0.006064160610068
9 0.013713808999918
10 0.001460920438969
11 0.001526660062602
12 -0.002987580501571
13 0.000000000000430
14 -0.000000000000436
15 0.003331578481969
16 0.007855856031486
17 0.003747247194527
18 -0.000000000000033
19 -0.001177584118028
20 -0.001250408118558
21 0.022193229718457
22 0.006190466406025
23 -0.000305059475029
24 -0.000674325717869
25 0.001529464921736
26 0.022193229718521
27 0.006190466409467
28 0.000305059475825
29 -0.000674325718605
30 0.001529464922893
 Sym=      3.1
 Ene=      -0.0929
 Spin= Alpha
 Occup=    2.000000
1 0.009494436987840
2 0.12808257619632
3 -0.033401836697075
4 0.000000000024364
5 -0.056623484584303
6 0.11792002887302
7 0.000000000007159
8 -0.022130125536648
9 0.043853429898944
10 -0.002500991058248
11 0.003633214758648
12 -0.001132223700400
13 0.000000000001169
14 -0.000000000002941
15 0.003322375449560
16 0.005083082600470
17 -0.001272557601879
18 -0.000000000000053
19 -0.000686765402345
20 -0.000169887393871
21 -0.43478104757770
22 -0.22559985519316
23 0.000872213409521
24 0.000054306816185
25 -0.000197991312716
26 -0.43478104761353
27 -0.22559985520965
28 -0.000872213410224
29 0.000054306816345
30 -0.000197991314966
 Sym=      4.1
 Ene=      -0.0597
 Spin= Alpha
 Occup=    2.000000
1 -0.000000000001113
2 -0.000000000012006
3 0.000000000004975
4 0.55986212834474
5 0.000000000012145
6 0.000000000034251
7 0.14398616561625
8 0.000000000000652
9 0.000000000003144
10 -0.000000000001528
11 0.000000000000670
12 0.000000000000858
13 0.002371529898653
14 -0.004665221040100
15 -0.000000000002520
16 0.000000000001930
17 0.000000000000183
18 0.001394276876071
19 -0.000000000000186
20 -0.000000000001674
21 0.32694377698891
22 0.18957929837091
23 0.004837131199665
24 -0.001716293060047
25 0.003837841921750
26 -0.32694377693436
27 -0.18957929834736
28 0.004837131201640
29 0.001716293060398
30 -0.003837841922929
 Sym=      5.1
 Ene=      -0.0621
 Spin= Alpha
 Occup=    1.259540
1 -0.000600934160679
2 -0.042231366542093
3 -0.004093351123962
4 -0.000000000018994
5 0.59432728050417
6 0.31402293216807
7 0.000000000001116
8 -0.008032779137738
9 -0.007907913745138
10 -0.001087973882407
11 -0.002447100227629
12 0.003535074110036
13 -0.000000000000036
14 0.000000000001704
15 0.004145083324350
16 0.66633403429896
17 0.036022947836859
18 -0.000000000000174
19 0.000952881480245
20 0.003582238597219
21 0.005435508343017
22 0.004717595553716
23 0.000051586834815
24 0.000662760286075
25 0.000159259997355
26 0.005435508357783
27 0.004717595560083
28 -0.000051586833749
29 0.000662760285527
30 0.000159259998605
 Sym=      6.1
 Ene=       0.0412
 Spin= Alpha
 Occup=    0.740460
1 -0.004068116091535
2 0.009211390345209
3 0.027863780177397
4 -0.000000000018638
5 0.66402707495844
6 0.34874568590516
7 0.000000000003553
8 -0.003138633811563
9 0.001313381365286
10 0.000298676864033
11 -0.004706917039431
12 0.004408240175399
13 -0.000000000000043
14 0.000000000000746
15 0.002888239921103
16 -0.75534576444352
17 0.036938522204597
18 -0.000000000000462
19 -0.002550626345590
20 -0.005784172633625
21 0.000174652341300
22 0.001214638980641
23 -0.000024718943813
24 0.000567142313741
25 0.000339949943101
26 0.000174652353683
27 0.001214638981611
28 0.000024718943948
29 0.000567142313162
30 0.000339949944421
 Sym=      7.1
 Ene=       0.1532
 Spin= Alpha
 Occup=   -0.000000
1 0.000000000000488
2 0.000000000008007
3 -0.000000000002838
4 -0.60210995155750
5 0.000000000010448
6 -0.000000000031183
7 -0.15521193507829
8 0.000000000003485
9 -0.000000000006634
10 0.000000000000391
11 0.000000000000180
12 -0.000000000000570
13 0.004733345159966
14 -0.010915263793762
15 0.000000000000566
16 0.000000000002033
17 0.000000000000580
18 -0.001762826375841
19 0.000000000000167
20 0.000000000000096
21 0.34758587271856
22 0.22245057831633
23 0.007915066426119
24 0.002260418735621
25 -0.004995108507860
26 -0.34758587272635
27 -0.22245057832076
28 0.007915066426546
29 -0.002260418735909
30 0.004995108508386
 Sym=      8.1
 Ene=       0.2442
 Spin= Alpha
 Occup=   -0.000000
1 -0.015423556417085
2 -0.14866888967296
3 0.077386654388327
4 -0.000000000038236
5 -0.33377169650417
6 0.64618041827566
7 -0.000000000016435
8 -0.14825714543784
9 0.26967636566090
10 -0.004397190811750
11 -0.003102726523954
12 0.007499917335704
13 0.000000000000143
14 -0.000000000000388
15 -0.007357446516180
16 -0.037488509779489
17 0.003684794504336
18 -0.000000000000157
19 -0.004990488152312
20 -0.001247500197356
21 0.12420269782393
22 0.093797266525240
23 0.004859324977033
24 0.003397535217812
25 -0.007941630008622
26 0.12420269781909
27 0.093797266521949
28 -0.004859324977033
29 0.003397535217694
30 -0.007941630008293
 Sym=      9.1
 Ene=       0.7536
 Spin= Alpha
 Occup=   -0.000000
1 -0.14849773204737
2 -0.80327614861208
3 0.76991250751601
4 -0.000000000000615
5 -0.27348901764660
6 -0.34785289787114
7 0.000000000001878
8 0.23006700174842
9 0.29040642705055
10 -0.012481248807936
11 0.004271934969363
12 0.008209313838573
13 -0.000000000000032
14 0.000000000000035
15 0.021737838844188
16 -1.90953232900135
17 2.08028314594558
18 0.000000000000006
19 -0.012334679594406
20 -0.013617568937060
21 -0.14336756690538
22 0.12711029357392
23 -0.002740204814219
24 0.000065583277776
25 0.003691734526431
26 -0.14336756690605
27 0.12711029357497
28 0.002740204814180
29 0.000065583277775
30 0.003691734526414
 Sym=     10.1
 Ene=       0.8633
 Spin= Alpha
 Occup=   -0.000000
1 0.28881525273605
2 1.47826407330891
3 -1.52796754529486
4 0.000000000019272
5 -0.93172119167430
6 -0.35524704369869
7 -0.000000000023839
8 1.15823521495541
9 0.39821895231730
10 0.003273223889989
11 0.004160902263050
12 -0.007434126153039
13 0.000000000000100
14 -0.000000000000600
15 0.011539581060557
16 -0.018082645595808
17 -0.041094645136595
18 -0.000000000000182
19 -0.017048685828564
20 -0.025415972691548
21 0.83556122701670
22 -0.79066546995522
23 0.018229689934576
24 0.012492610913539
25 -0.006666805536138
26 0.83556122702676
27 -0.79066546996713
28 -0.018229689934536
29 0.012492610913438
30 -0.006666805535654
 Sym=     11.1
 Ene=       0.8775
 Spin= Alpha
 Occup=   -0.000000
1 0.000000000007565
2 0.000000000043685
3 -0.000000000038306
4 -1.43019710624597
5 0.000000000190791
6 -0.000000000109809
7 1.57273502125126
8 -0.000000000225092
9 0.000000000092719
10 -0.000000000000257
11 0.000000000002039
12 -0.000000000001781
13 0.002604409134394
14 -0.006363849100727
15 0.000000000003341
16 -0.000000000062092
17 0.000000000079821
18 0.013780985759674
19 0.000000000002184
20 0.000000000005132
21 -0.61433551051022
22 0.59090455274943
23 0.004718386515747
24 -0.011113789304384
25 0.024663453322511
26 0.61433551089850
27 -0.59090455310635
28 0.004718386503788
29 0.011113789306010
30 -0.024663453332114
 Sym=     12.1
 Ene=       0.8829
 Spin= Alpha
 Occup=   -0.000000
1 -0.028271170166040
2 -0.16366186313996
3 0.14212046739533
4 -0.000000000285493
5 -1.05976959354099
6 0.53260254921787
7 0.000000000311809
8 1.22176449769675
9 -0.43843974592976
10 0.002233852271819
11 -0.010635058591336
12 0.008401206319517
13 0.000000000000391
14 -0.000000000001079
15 -0.016104709963325
16 0.34179359711630
17 -0.43502207720158
18 0.000000000002773
19 -0.013182025437099
20 -0.028683830601517
21 -0.94095696069767
22 0.86672619809136
23 -0.029528750436266
24 -0.002968122911833
25 0.023464767625230
26 -0.94095696047749
27 0.86672619788333
28 0.029528750437993
29 -0.002968122907444
30 0.023464767615601
 Sym=     13.1
 Ene=       0.9250
 Spin= Alpha
 Occup=   -0.000000
1 -0.24973083135662
2 -1.23500339694845
3 1.33811120050876
4 -0.000000000000042
5 -0.093137413119584
6 -1.29912288835409
7 0.000000000003226
8 0.22526686519358
9 1.54675639591070
10 0.008394544130536
11 -0.013095715721772
12 0.004701171591236
13 -0.000000000000192
14 0.000000000000407
15 -0.030330110861881
16 0.82995593152983
17 -1.06254676285749
18 0.000000000000083
19 -0.069437304021076
20 -0.060700085535084
21 -0.29654382151820
22 0.35175510661347
23 0.009968895011544
24 0.016029461087865
25 -0.018519244217963
26 -0.29654382154286
27 0.35175510664110
28 -0.009968895012176
29 0.016029461088079
30 -0.018519244218278
 Sym=     14.1
 Ene=       0.9835
 Spin= Alpha
 Occup=   -0.000000
1 0.000000000015253
2 0.000000000074752
3 -0.000000000081545
4 -0.63144789782957
5 0.000000000007754
6 -0.000000000007039
7 0.81568846292220
8 -0.000000000011548
9 0.000000000008213
10 -0.000000000000331
11 0.000000000000003
12 0.000000000000328
13 -0.026161535539732
14 0.057717070941031
15 0.000000000000270
16 -0.000000000015141
17 0.000000000018583
18 0.009680519125292
19 0.000000000000976
20 0.000000000001275
21 1.51503718159249
22 -1.69674046273772
23 -0.041670570348236
24 -0.007302227187565
25 0.016210537549664
26 -1.51503718160116
27 1.69674046275372
28 -0.041670570349695
29 0.007302227188618
30 -0.016210537552386
 Sym=     15.1
 Ene=       1.0315
 Spin= Alpha
 Occup=   -0.000000
1 -0.50661158528876
2 -2.46803834893211
3 2.73361035103990
4 -0.000000000013229
5 -0.36075267450428
6 0.50121456223622
7 0.000000000014895
8 0.47782842791224
9 -0.63643461400135
10 0.021516327595374
11 0.013376403918658
12 -0.034892731514033
13 -0.000000000000631
14 0.000000000001621
15 0.019927542570709
16 0.34947840316693
17 -0.43678031718006
18 0.000000000000196
19 -0.023700951191438
20 -0.040201019892469
21 0.89697190715575
22 -1.01725553571599
23 -0.010852562317482
24 -0.026352413758719
25 0.062946815586245
26 0.89697190708934
27 -1.01725553564104
28 0.010852562315526
29 -0.026352413758635
30 0.062946815586063
 Sym=     16.1
 Ene=       1.5849
 Spin= Alpha
 Occup=   -0.000000
1 -0.000208433396824
2 0.000165045761638
3 0.001703510530715
4 0.000000000000913
5 0.002548892675395
6 0.003206763172812
7 0.000000000000914
8 -0.009497453366648
9 -0.006475846271639
10 0.29585652500850
11 -0.82588213827731
12 0.53002561326881
13 -0.000000000082623
14 -0.000000000056885
15 0.54205333069616
16 0.048407667030618
17 -0.059271733044063
18 -0.000000000003308
19 -0.068243790248676
20 -0.030659787879427
21 0.003071335677575
22 -0.004458175711942
23 0.001708590979074
24 -0.009835051772585
25 0.000397007258617
26 0.003071335671000
27 -0.004458175705572
28 -0.001708590980916
29 -0.009835051771172
30 0.000397007257531
 Sym=     17.1
 Ene=       1.5886
 Spin= Alpha
 Occup=   -0.000000
1 -0.000000000031878
2 -0.000000000137255
3 0.000000000181010
4 -0.002517579407104
5 -0.000000000018980
6 0.000000000038427
7 0.004428042490133
8 0.000000000039132
9 -0.000000000094534
10 -0.000000001815162
11 -0.000000000400407
12 0.000000002215569
13 0.95874420021047
14 0.28133628605041
15 -0.000000001019347
16 0.000000000013389
17 -0.000000000014875
18 0.035775052830915
19 -0.000000000026719
20 0.000000000007238
21 0.019997457400596
22 -0.026371580280259
23 -0.007576717954027
24 0.004011661521457
25 0.009934586144043
26 -0.019997456909496
27 0.026371579682596
28 -0.007576717871387
29 -0.004011661621644
30 -0.009934585942977
 Sym=     18.1
 Ene=       1.5886
 Spin= Alpha
 Occup=   -0.000000
1 -0.012141083351815
2 -0.052286255205208
3 0.069104811167062
4 0.000000000004476
5 -0.006669389799588
6 0.015105917203103
7 -0.000000000010642
8 0.014615152541188
9 -0.036344292707509
10 -0.73761003953051
11 -0.10495283354278
12 0.84256287307329
13 -0.000000002466006
14 -0.000000000733045
15 -0.38984139944575
16 0.007897194137212
17 -0.009151779174171
18 -0.000000000092001
19 -0.013115384025312
20 -0.001786225422335
21 0.093028439617866
22 -0.11320153696510
23 -0.016145553143431
24 -0.018681525274319
25 0.037899867668251
26 0.093028439717903
27 -0.11320153709546
28 0.016145553182198
29 -0.018681525253957
30 0.037899867719921
 Sym=     19.1
 Ene=       1.5907
 Spin= Alpha
 Occup=   -0.000000
1 0.006830246084484
2 0.030959861922923
3 -0.037568282306444
4 0.000000000003389
5 0.018591467062008
6 0.007499365715992
7 -0.000000000005587
8 -0.026396009021347
9 0.000665684010652
10 -0.59347906188092
11 0.54772369053205
12 0.045755371348875
13 0.000000000050728
14 0.000000000160683
15 0.71434327290779
16 0.11912033779859
17 -0.15012319745131
18 0.000000000004149
19 -0.15344806419994
20 -0.16683576305110
21 -0.059382168307712
22 0.074024017511918
23 0.000642753099413
24 0.010664264514416
25 -0.032427432647014
26 -0.059382168270368
27 0.074024017462532
28 -0.000642753085210
29 0.010664264507048
30 -0.032427432636010
 Sym=     20.1
 Ene=       1.5931
 Spin= Alpha
 Occup=   -0.000000
1 -0.000000000000768
2 -0.000000000002281
3 0.000000000004029
4 0.021579523326949
5 -0.000000000004588
6 -0.000000000001813
7 -0.040241490388684
8 0.000000000003743
9 0.000000000000531
10 0.000000000086182
11 -0.000000000103939
12 0.000000000017757
13 -0.27810662962420
14 0.95336209151100
15 -0.000000000086811
16 -0.000000000015622
17 0.000000000018974
18 0.006345724689843
19 0.000000000019537
20 0.000000000023155
21 -0.14425828664395
22 0.19016211687036
23 0.056432857067740
24 0.023855172312596
25 -0.050239584827777
26 0.14425828665916
27 -0.19016211689391
28 0.056432857069095
29 -0.023855172317367
30 0.050239584839420
 Sym=     21.1
 Ene=       1.6316
 Spin= Alpha
 Occup=   -0.000000
1 0.000738284882287
2 0.003788072754070
3 -0.003723354522061
4 -0.000000000003060
5 -0.019487951990176
6 0.024643655080388
7 0.000000000005162
8 0.027258551952101
9 -0.034409143838949
10 -0.000946484678124
11 0.025700634424159
12 -0.024754149746034
13 0.000000000003599
14 0.000000000001650
15 -0.012858632780272
16 -0.007560289961665
17 0.006436949333012
18 -0.000000000110142
19 -0.73927120696251
20 0.67220361361859
21 0.006736625722803
22 -0.010119839324840
23 -0.006298477944427
24 -0.004484516566377
25 0.012698409281492
26 0.006736625720588
27 -0.010119839322875
28 0.006298477943642
29 -0.004484516565641
30 0.012698409279890
 Sym=     22.1
 Ene=       1.6317
 Spin= Alpha
 Occup=   -0.000000
1 0.000000000000054
2 0.000000000000132
3 -0.000000000000059
4 0.032176713417032
5 -0.000000000001803
6 0.000000000002763
7 -0.044713634046635
8 0.000000000003141
9 -0.000000000003492
10 -0.000000000000287
11 0.000000000003260
12 -0.000000000002973
13 -0.031895639387708
14 -0.018049986903555
15 -0.000000000001155
16 -0.000000000000973
17 0.000000000000568
18 0.99914543817444
19 -0.000000000080631
20 0.000000000075025
21 -0.006275858600074
22 0.009377443520192
23 0.004047865190820
24 0.003659374188463
25 -0.008812527438224
26 0.006275858601347
27 -0.009377443522346
28 0.004047865192302
29 -0.003659374189464
30 0.008812527441206
 Sym=     23.1
 Ene=       1.6648
 Spin= Alpha
 Occup=   -0.000000
1 -0.062051605525528
2 -0.29295888576857
3 0.33346391712884
4 0.000000000000831
5 -0.13990020917957
6 -0.14502016060558
7 0.000000000000207
8 0.20700654438660
9 0.21324711032773
10 -0.12599691477529
11 0.067752726923364
12 0.058244187851925
13 0.000000000001399
14 -0.000000000000148
15 0.20224798293520
16 0.12549834324439
17 -0.18973906067575
18 -0.000000000001250
19 0.64886938911589
20 0.71775925428530
21 -0.005331872901019
22 0.008902669338545
23 0.009702115798805
24 0.030226336802377
25 -0.002274179171503
26 -0.005331872901958
27 0.008902669338178
28 -0.009702115799276
29 0.030226336803586
30 -0.002274179171801
 Sym=     24.1
 Ene=       1.7845
 Spin= Alpha
 Occup=   -0.000000
1 0.003594616794731
2 0.016747556538652
3 -0.019454464333619
4 -0.000000000001163
5 0.041853177621310
6 0.021674013252751
7 0.000000000001874
8 -0.061541834646126
9 -0.032634507547031
10 0.004132561190589
11 -0.010598001293551
12 0.006465440102963
13 0.000000000049989
14 0.000000000021500
15 0.002141756860878
16 -0.015633521207202
17 0.024591110156085
18 -0.000000000000140
19 -0.024261722447317
20 -0.028714223946154
21 0.002840298896045
22 -0.003298654443296
23 -0.018967843151198
24 0.64572669451274
25 0.28601540654951
26 0.002840298893374
27 -0.003298654440029
28 0.018967843158297
29 0.64572670076085
30 0.28601540937897
 Sym=     25.1
 Ene=       1.7850
 Spin= Alpha
 Occup=   -0.000000
1 0.000000000017155
2 0.000000000079229
3 -0.000000000092030
4 0.000257594890886
5 0.000000000202903
6 0.000000000104478
7 -0.000388673499616
8 -0.000000000298126
9 -0.000000000157789
10 0.000000000020410
11 -0.000000000051640
12 0.000000000031230
13 -0.010275909959711
14 -0.004447668354216
15 0.000000000009639
16 -0.000000000075663
17 0.000000000118997
18 0.000031113021647
19 -0.000000000116943
20 -0.000000000138438
21 -0.000160682364291
22 0.000205991893067
23 -0.000302534638817
24 0.64402446722584
25 0.29186761155454
26 0.000160682400818
27 -0.000205991934588
28 -0.000302534404723
29 -0.64402446095442
30 -0.29186760880037
 Sym=     26.1
 Ene=       1.7866
 Spin= Alpha
 Occup=   -0.000000
1 -0.008787272781617
2 -0.037751364288699
3 0.049705254125295
4 0.000000000013253
5 0.002833988954043
6 -0.013541759000138
7 -0.000000000020175
8 0.000035476839358
9 0.010888698715537
10 0.009969654851404
11 -0.013305449828937
12 0.003335794977533
13 -0.000000000000902
14 0.000000000003308
15 -0.010148083469442
16 0.002104142558832
17 -0.003733267843250
18 0.000000000001674
19 0.006425320385462
20 0.005928867591968
21 0.10867185089475
22 -0.12490115363192
23 -0.65215321591046
24 0.094444606847242
25 -0.25601423380847
26 0.10867185085830
27 -0.12490115358356
28 0.65215321611056
29 0.094444607005214
30 -0.25601423402497
 Sym=     27.1
 Ene=       1.7937
 Spin= Alpha
 Occup=   -0.000000
1 -0.000000000002120
2 -0.000000000010014
3 0.000000000010758
4 0.090215906125106
5 -0.000000000004227
6 0.000000000014175
7 -0.13323219662049
8 0.000000000006838
9 -0.000000000018681
10 -0.000000000003069
11 0.000000000000326
12 0.000000000002743
13 -0.020107690760666
14 0.044519017068520
15 -0.000000000001616
16 -0.000000000001036
17 0.000000000001390
18 0.010749312333101
19 -0.000000000003095
20 -0.000000000001189
21 0.024583356638465
22 -0.027481466195235
23 0.23692478677517
24 -0.27462027305887
25 0.60619768070267
26 -0.024583356680498
27 0.027481466241512
28 0.23692478645723
29 0.27462027304176
30 -0.60619768065130
 Sym=     28.1
 Ene=       1.8108
 Spin= Alpha
 Occup=   -0.000000
1 -0.000000000008691
2 -0.000000000039541
3 0.000000000046668
4 0.081532409356023
5 -0.000000000007968
6 0.000000000021330
7 -0.13320687505390
8 0.000000000013561
9 -0.000000000031996
10 -0.000000000001137
11 -0.000000000005493
12 0.000000000006630
13 -0.042175075383274
14 0.094126738369395
15 -0.000000000007702
16 0.000000000000237
17 0.000000000000607
18 0.009801219563662
19 -0.000000000002865
20 0.000000000000357
21 -0.17773596278384
22 0.23872871082329
23 -0.66420557048620
24 -0.096235420256810
25 0.21163605922924
26 0.17773596280937
27 -0.23872871085775
28 -0.66420557045076
29 0.096235420330421
30 -0.21163605938996
 Sym=     29.1
 Ene=       1.8243
 Spin= Alpha