 Water                                                   
GAUSSIAN              5 MOL ORBITALS     46 PRIMITIVES        3 NUCLEI
  H    1    (CENTRE  1)  -0.00000000  1.45475500 -0.88045545  CHARGE =  1.0
  O    2    (CENTRE  2)  -0.00000000 -0.00000000  0.22011386  CHARGE =  8.0
  H    3    (CENTRE  3)  -0.00000000 -1.45475500 -0.88045545  CHARGE =  1.0
CENTRE ASSIGNMENTS    1  1  1  1  1  1  1  2  2  2  2  2  2  2  2  2  2  2  2  2
CENTRE ASSIGNMENTS    2  2  2  2  2  2  2  2  2  2  2  2  2  2  2  2  2  2  2  3
CENTRE ASSIGNMENTS    3  3  3  3  3  3
TYPE ASSIGNMENTS      1  1  1  1  2  3  4  1  1  1  1  1  1  1  1  1  2  2  2  3
TYPE ASSIGNMENTS      3  3  4  4  4  1  2  3  4  1  2  3  4  5  6  7  8  9 10  1
TYPE ASSIGNMENTS      1  1  1  2  3  4
EXPONENTS  0.1873114D+02 0.2825394D+01 0.6401217D+00 0.1612778D+00 0.1100000D+01
EXPONENTS  0.1100000D+01 0.1100000D+01 0.5484672D+04 0.8252349D+03 0.1880470D+03
EXPONENTS  0.5296450D+02 0.1689757D+02 0.5799635D+01 0.1553962D+02 0.3599934D+01
EXPONENTS  0.1013762D+01 0.1553962D+02 0.3599934D+01 0.1013762D+01 0.1553962D+02
EXPONENTS  0.3599934D+01 0.1013762D+01 0.1553962D+02 0.3599934D+01 0.1013762D+01
EXPONENTS  0.2700058D+00 0.2700058D+00 0.2700058D+00 0.2700058D+00 0.8450000D-01
EXPONENTS  0.8450000D-01 0.8450000D-01 0.8450000D-01 0.8000000D+00 0.8000000D+00
EXPONENTS  0.8000000D+00 0.8000000D+00 0.8000000D+00 0.8000000D+00 0.1873114D+02
EXPONENTS  0.2825394D+01 0.6401217D+00 0.1612778D+00 0.1100000D+01 0.1100000D+01
EXPONENTS  0.1100000D+01
MO    1     MO 0.0        OCC NO =    2.0000000  ORB. ENERGY =  -19.169630
  0.64441829D-04  0.10930554D-03  0.12444049D-03 -0.19001170D-03  0.00000000D+00
  0.20971234D-03 -0.15735786D-03  0.82570610D+00  0.15197400D+01  0.24592262D+01
  0.32327217D+01  0.27726866D+01  0.94802863D+00 -0.16021315D-01 -0.71486794D-02
  0.21110146D-01  0.00000000D+00  0.00000000D+00  0.00000000D+00  0.00000000D+00
  0.00000000D+00  0.00000000D+00 -0.39411460D-02 -0.30364405D-02 -0.13331609D-02
  0.31502795D-02  0.00000000D+00  0.00000000D+00  0.13748379D-03 -0.10263530D-03
  0.00000000D+00  0.00000000D+00 -0.46922837D-04 -0.89793236D-02 -0.88840688D-02
 -0.89205620D-02  0.00000000D+00  0.00000000D+00  0.00000000D+00  0.64441829D-04
  0.10930554D-03  0.12444049D-03 -0.19001170D-03  0.00000000D+00 -0.20971234D-03
 -0.15735786D-03
MO    2     MO 0.0        OCC NO =    2.0000000  ORB. ENERGY =   -1.022172
  0.32587658D-01  0.55274836D-01  0.62928447D-01 -0.56345332D-03  0.00000000D+00
 -0.33371487D-01  0.19373361D-01 -0.17601101D+00 -0.32395421D+00 -0.52421907D+00
 -0.68910064D+00 -0.59103761D+00 -0.20208580D+00 -0.29188511D+00 -0.13023857D+00
  0.38459624D+00  0.00000000D+00  0.00000000D+00  0.00000000D+00  0.00000000D+00
  0.00000000D+00  0.00000000D+00 -0.36497268D+00 -0.28119177D+00 -0.12345833D+00
  0.11442002D+00  0.00000000D+00  0.00000000D+00 -0.11879136D-01  0.27614274D-02
  0.00000000D+00  0.00000000D+00 -0.83021841D-03 -0.91052030D-02  0.66484457D-03
  0.30641034D-02  0.00000000D+00  0.00000000D+00  0.00000000D+00  0.32587658D-01
  0.55274836D-01  0.62928447D-01 -0.56345332D-03  0.00000000D+00  0.33371487D-01
  0.19373361D-01
MO    3     MO 0.0        OCC NO =    2.0000000  ORB. ENERGY =   -0.542288
  0.52869211D-01  0.89676189D-01  0.10209317D+00  0.23673257D-01  0.00000000D+00
 -0.11251356D-01  0.25459284D-01  0.00000000D+00  0.00000000D+00  0.00000000D+00
  0.00000000D+00  0.00000000D+00  0.00000000D+00 -0.00000000D+00 -0.00000000D+00
  0.00000000D+00  0.00000000D+00  0.00000000D+00  0.00000000D+00  0.16218510D+01
  0.12495488D+01  0.54861923D+00  0.00000000D+00  0.00000000D+00  0.00000000D+00
  0.00000000D+00  0.00000000D+00  0.68278681D-01  0.00000000D+00  0.00000000D+00
  0.00000000D+00  0.11145410D-02  0.00000000D+00  0.00000000D+00  0.00000000D+00
  0.00000000D+00  0.00000000D+00  0.00000000D+00 -0.54597970D-01 -0.52869211D-01
 -0.89676189D-01 -0.10209317D+00 -0.23673257D-01  0.00000000D+00 -0.11251356D-01
 -0.25459284D-01
MO    4     MO 0.0        OCC NO =    2.0000000  ORB. ENERGY =   -0.394157
 -0.31080681D-01 -0.52718718D-01 -0.60018397D-01 -0.17720541D-01  0.00000000D+00
  0.21566600D-01  0.15430587D-01 -0.66551309D-01 -0.12248993D+00 -0.19821184D+00
 -0.26055501D+00 -0.22347652D+00 -0.76410416D-01 -0.11296505D+00 -0.50404785D-01
  0.14884601D+00  0.00000000D+00  0.00000000D+00  0.00000000D+00  0.00000000D+00
  0.00000000D+00  0.00000000D+00  0.17502552D+01  0.13484772D+01  0.59205414D+00
  0.85333936D-01  0.00000000D+00  0.00000000D+00  0.90360757D-01  0.52131588D-02
  0.00000000D+00  0.00000000D+00  0.51642853D-02  0.98763112D-02  0.95717879D-02
 -0.36357799D-01  0.00000000D+00  0.00000000D+00  0.00000000D+00 -0.31080681D-01
 -0.52718718D-01 -0.60018397D-01 -0.17720541D-01  0.00000000D+00 -0.21566600D-01
  0.15430587D-01
MO    5     MO 0.0        OCC NO =    2.0000000  ORB. ENERGY =   -0.321012
  0.00000000D+00  0.00000000D+00  0.00000000D+00  0.00000000D+00  0.36328213D-01
  0.00000000D+00  0.00000000D+00  0.00000000D+00  0.00000000D+00  0.00000000D+00
  0.00000000D+00  0.00000000D+00  0.00000000D+00 -0.00000000D+00 -0.00000000D+00
  0.00000000D+00  0.20053974D+01  0.15450506D+01  0.67836043D+00  0.00000000D+00
  0.00000000D+00  0.00000000D+00  0.00000000D+00  0.00000000D+00  0.00000000D+00
  0.00000000D+00  0.11649573D+00  0.00000000D+00  0.00000000D+00  0.00000000D+00
  0.83133407D-02  0.00000000D+00  0.00000000D+00  0.00000000D+00  0.00000000D+00
  0.00000000D+00  0.00000000D+00 -0.52761913D-01  0.00000000D+00  0.00000000D+00
  0.00000000D+00  0.00000000D+00  0.00000000D+00  0.36328213D-01  0.00000000D+00
  0.00000000D+00
END DATA
 THE  HF ENERGY =    -76.434047552600 THE VIRIAL(-V/T)=   2.00927438
