 Ethyne molecule                                         
GAUSSIAN              7 MOL ORBITALS     70 PRIMITIVES        4 NUCLEI
  C    1    (CENTRE  1)  -0.00000000  1.13888390 -0.00034043  CHARGE =  6.0
  C    2    (CENTRE  2)  -0.00000000 -1.13888390 -0.00034043  CHARGE =  6.0
  H    3    (CENTRE  3)   0.00000796 -3.15279415  0.00204258  CHARGE =  1.0
  H    4    (CENTRE  4)  -0.00000796  3.15279415  0.00204258  CHARGE =  1.0
CENTRE ASSIGNMENTS    1  1  1  1  1  1  1  1  1  1  1  1  1  1  1  1  1  1  1  1
CENTRE ASSIGNMENTS    1  1  1  1  1  1  1  1  2  2  2  2  2  2  2  2  2  2  2  2
CENTRE ASSIGNMENTS    2  2  2  2  2  2  2  2  2  2  2  2  2  2  2  2  3  3  3  3
CENTRE ASSIGNMENTS    3  3  3  4  4  4  4  4  4  4
TYPE ASSIGNMENTS      1  1  1  1  1  1  1  1  1  2  2  2  3  3  3  4  4  4  1  2
TYPE ASSIGNMENTS      3  4  5  6  7  8  9 10  1  1  1  1  1  1  1  1  1  2  2  2
TYPE ASSIGNMENTS      3  3  3  4  4  4  1  2  3  4  5  6  7  8  9 10  1  1  1  1
TYPE ASSIGNMENTS      2  3  4  1  1  1  1  2  3  4
EXPONENTS  0.3047525D+04 0.4573695D+03 0.1039487D+03 0.2921016D+02 0.9286663D+01
EXPONENTS  0.3163927D+01 0.7868272D+01 0.1881289D+01 0.5442493D+00 0.7868272D+01
EXPONENTS  0.1881289D+01 0.5442493D+00 0.7868272D+01 0.1881289D+01 0.5442493D+00
EXPONENTS  0.7868272D+01 0.1881289D+01 0.5442493D+00 0.1687145D+00 0.1687145D+00
EXPONENTS  0.1687145D+00 0.1687145D+00 0.8000000D+00 0.8000000D+00 0.8000000D+00
EXPONENTS  0.8000000D+00 0.8000000D+00 0.8000000D+00 0.3047525D+04 0.4573695D+03
EXPONENTS  0.1039487D+03 0.2921016D+02 0.9286663D+01 0.3163927D+01 0.7868272D+01
EXPONENTS  0.1881289D+01 0.5442493D+00 0.7868272D+01 0.1881289D+01 0.5442493D+00
EXPONENTS  0.7868272D+01 0.1881289D+01 0.5442493D+00 0.7868272D+01 0.1881289D+01
EXPONENTS  0.5442493D+00 0.1687145D+00 0.1687145D+00 0.1687145D+00 0.1687145D+00
EXPONENTS  0.8000000D+00 0.8000000D+00 0.8000000D+00 0.8000000D+00 0.8000000D+00
EXPONENTS  0.8000000D+00 0.1873114D+02 0.2825394D+01 0.6401217D+00 0.1612778D+00
EXPONENTS  0.1100000D+01 0.1100000D+01 0.1100000D+01 0.1873114D+02 0.2825394D+01
EXPONENTS  0.6401217D+00 0.1612778D+00 0.1100000D+01 0.1100000D+01 0.1100000D+01
MO    1     MO 0.0        OCC NO =    2.0000000  ORB. ENERGY =  -10.192101
  0.37623464D+00  0.69407944D+00  0.11204594D+01  0.14585053D+01  0.12445452D+01
  0.42971154D+00 -0.13451077D-01 -0.61995889D-02  0.17384294D-01 -0.43831245D-08
 -0.33607019D-08 -0.16772258D-08  0.93519481D-03  0.71704806D-03  0.35785724D-03
  0.65370001D-06  0.50121571D-06  0.25014177D-06 -0.70286577D-03  0.66627846D-09
 -0.51257046D-04 -0.39795622D-07 -0.82605704D-02 -0.63020412D-02 -0.82605695D-02
 -0.11497986D-07 -0.87485713D-11  0.16973622D-05  0.37623464D+00  0.69407944D+00
  0.11204594D+01  0.14585053D+01  0.12445452D+01  0.42971154D+00 -0.13451077D-01
 -0.61995889D-02  0.17384294D-01  0.43831245D-08  0.33607019D-08  0.16772258D-08
 -0.93519481D-03 -0.71704806D-03 -0.35785724D-03  0.65370001D-06  0.50121571D-06
  0.25014177D-06 -0.70286577D-03 -0.66627846D-09  0.51257046D-04 -0.39795622D-07
 -0.82605704D-02 -0.63020412D-02 -0.82605695D-02 -0.11497986D-07  0.87485713D-11
 -0.16973622D-05 -0.22550806D-03 -0.38250434D-03 -0.43546768D-03  0.17853506D-03
  0.55952462D-08 -0.97935723D-03  0.19012602D-05 -0.22550806D-03 -0.38250434D-03
 -0.43546768D-03  0.17853506D-03 -0.55952462D-08  0.97935723D-03  0.19012602D-05
MO    2     MO 0.0        OCC NO =    2.0000000  ORB. ENERGY =  -10.189696
  0.37669257D+00  0.69492424D+00  0.11218232D+01  0.14602805D+01  0.12460600D+01
  0.43023456D+00 -0.14221591D-01 -0.65547182D-02  0.18380114D-01 -0.56940127D-08
 -0.43658078D-08 -0.21788441D-08 -0.99428341D-03 -0.76235345D-03 -0.38046780D-03
 -0.46454461D-06 -0.35618334D-06 -0.17776045D-06 -0.30575225D-02 -0.13989818D-09
  0.10286953D-02  0.23446408D-06 -0.78206850D-02 -0.55991186D-02 -0.78206834D-02
 -0.74851526D-08 -0.78481972D-11  0.37764367D-05 -0.37669257D+00 -0.69492424D+00
 -0.11218232D+01 -0.14602805D+01 -0.12460600D+01 -0.43023456D+00  0.14221591D-01
  0.65547182D-02 -0.18380114D-01 -0.56940127D-08 -0.43658078D-08 -0.21788441D-08
 -0.99428341D-03 -0.76235345D-03 -0.38046780D-03  0.46454461D-06  0.35618334D-06
  0.17776045D-06  0.30575225D-02 -0.13989818D-09  0.10286953D-02 -0.23446408D-06
  0.78206850D-02  0.55991186D-02  0.78206834D-02  0.74851526D-08 -0.78481972D-11
  0.37764367D-05  0.25272870D-03  0.42867571D-03  0.48803215D-03  0.88872020D-04
 -0.82631487D-08  0.98687046D-03 -0.21284452D-05 -0.25272870D-03 -0.42867571D-03
 -0.48803215D-03 -0.88872020D-04 -0.82631487D-08  0.98687046D-03  0.21284452D-05
MO    3     MO 0.0        OCC NO =    2.0000000  ORB. ENERGY =   -0.742717
 -0.93805748D-01 -0.17305329D+00 -0.27936166D+00 -0.36364588D+00 -0.31029969D+00
 -0.10713903D+00 -0.13239195D+00 -0.61019328D-01  0.17110457D+00 -0.15942520D-06
 -0.12223714D-06 -0.61004897D-07 -0.19073650D+00 -0.14624465D+00 -0.72986328D-01
  0.45761572D-04  0.35087071D-04  0.17510907D-04  0.47002508D-01 -0.26110183D-07
  0.31566763D-02  0.36108732D-05 -0.18479283D-01  0.10646589D-01 -0.18479272D-01
 -0.31468299D-07 -0.60699886D-10  0.16007049D-04 -0.93805748D-01 -0.17305329D+00
 -0.27936166D+00 -0.36364588D+00 -0.31029969D+00 -0.10713903D+00 -0.13239195D+00
 -0.61019328D-01  0.17110457D+00  0.15942520D-06  0.12223714D-06  0.61004897D-07
  0.19073650D+00  0.14624465D+00  0.72986328D-01  0.45761572D-04  0.35087071D-04
  0.17510907D-04  0.47002508D-01  0.26110183D-07 -0.31566763D-02  0.36108732D-05
 -0.18479283D-01  0.10646589D-01 -0.18479272D-01 -0.31468299D-07  0.60699886D-10
 -0.16007049D-04  0.17003450D-01  0.28841069D-01  0.32834538D-01 -0.34460050D-03
 -0.35324867D-07  0.13444664D-01 -0.92199574D-05  0.17003450D-01  0.28841069D-01
  0.32834538D-01 -0.34460050D-03  0.35324867D-07 -0.13444664D-01 -0.92199574D-05
MO    4     MO 0.0        OCC NO =    2.0000000  ORB. ENERGY =   -0.564149
 -0.60856461D-01 -0.11226829D+00 -0.18123583D+00 -0.23591520D+00 -0.20130686D+00
 -0.69506423D-01 -0.90790249D-01 -0.41845143D-01  0.11733815D+00 -0.99799791D-06
 -0.76520150D-06 -0.38188918D-06  0.26722455D+00  0.20489084D+00  0.10225489D+00
  0.17377053D-03  0.13323622D-03  0.66494211D-04  0.37277187D-01 -0.28318464D-07
  0.10490641D-01  0.52579978D-05 -0.11844237D-01  0.57603628D-02 -0.11844210D-01
 -0.11961412D-06 -0.17795963D-09  0.54741892D-04  0.60856461D-01  0.11226829D+00
  0.18123583D+00  0.23591520D+00  0.20130686D+00  0.69506423D-01  0.90790249D-01
  0.41845143D-01 -0.11733815D+00 -0.99799791D-06 -0.76520150D-06 -0.38188918D-06
  0.26722455D+00  0.20489084D+00  0.10225489D+00 -0.17377053D-03 -0.13323622D-03
 -0.66494211D-04 -0.37277187D-01 -0.28318464D-07  0.10490641D-01 -0.52579978D-05
  0.11844237D-01 -0.57603628D-02  0.11844210D-01  0.11961412D-06 -0.17795963D-09
  0.54741892D-04 -0.47308551D-01 -0.80244256D-01 -0.91355249D-01 -0.22601310D-01
  0.77891735D-07 -0.20262703D-01  0.27272951D-04  0.47308551D-01  0.80244256D-01
  0.91355249D-01  0.22601310D-01  0.77891735D-07 -0.20262703D-01 -0.27272951D-04
MO    5     MO 0.0        OCC NO =    2.0000000  ORB. ENERGY =   -0.490271
  0.19763687D-02  0.36460143D-02  0.58857976D-02  0.76615597D-02  0.65376228D-02
  0.22572840D-02 -0.17746920D-02 -0.81795393D-03  0.22936282D-02 -0.75845496D-06
 -0.58153516D-06 -0.29022680D-06  0.50361764D+00  0.38614206D+00  0.19271195D+00
  0.39336165D-03  0.30160476D-03  0.15052191D-03  0.38157795D-03  0.44583395D-08
  0.87968480D-02  0.95692771D-05  0.15188502D-02  0.73398909D-02  0.15188757D-02
 -0.23875256D-06 -0.19355603D-09  0.22783835D-04  0.19763687D-02  0.36460143D-02
  0.58857976D-02  0.76615597D-02  0.65376228D-02  0.22572840D-02 -0.17746920D-02
 -0.81795393D-03  0.22936282D-02  0.75845496D-06  0.58153516D-06  0.29022680D-06
 -0.50361764D+00 -0.38614206D+00 -0.19271195D+00  0.39336165D-03  0.30160476D-03
  0.15052191D-03  0.38157795D-03 -0.44583395D-08 -0.87968480D-02  0.95692771D-05
  0.15188502D-02  0.73398909D-02  0.15188757D-02 -0.23875256D-06  0.19355603D-09
 -0.22783835D-04  0.48416864D-01  0.82124166D-01  0.93495460D-01  0.35775332D-01
 -0.88851300D-07  0.13906090D-01 -0.22869364D-04  0.48416864D-01  0.82124166D-01
  0.93495460D-01  0.35775332D-01  0.88851300D-07 -0.13906090D-01 -0.22869364D-04
MO    6     MO 0.0        OCC NO =    2.0000000  ORB. ENERGY =   -0.282357
 -0.18569744D-06 -0.34257551D-06 -0.55302310D-06 -0.71987175D-06 -0.61426787D-06
 -0.21209193D-06 -0.33537538D-06 -0.15457421D-06  0.43344221D-06  0.54182133D+00
  0.41543423D+00  0.20733080D+00  0.68684736D-06  0.52663099D-06  0.26282578D-06
 -0.38544742D-09 -0.29553663D-09 -0.14749349D-09 -0.38431312D-06  0.39002968D-01
  0.49638129D-06  0.19727924D-09 -0.36023038D-07 -0.30852429D-07  0.24062252D-07
 -0.34156285D-01  0.52962272D-05  0.64201119D-10  0.18569744D-06  0.34257551D-06
  0.55302310D-06  0.71987175D-06  0.61426787D-06  0.21209193D-06  0.33537538D-06
  0.15457421D-06 -0.43344221D-06  0.54182133D+00  0.41543423D+00  0.20733080D+00
  0.68684736D-06  0.52663099D-06  0.26282578D-06  0.38544742D-09  0.29553663D-09
  0.14749349D-09  0.38431312D-06  0.39002968D-01  0.49638129D-06 -0.19727924D-09
  0.36023038D-07  0.30852429D-07 -0.24062252D-07  0.34156285D-01  0.52962272D-05
  0.64201119D-10  0.54378769D-07  0.92236685D-07  0.10500821D-06  0.22517462D-06
  0.18213450D-01  0.10339345D-06 -0.14393743D-09 -0.54378769D-07 -0.92236685D-07
 -0.10500821D-06 -0.22517462D-06  0.18213450D-01  0.10339345D-06  0.14393743D-09
MO    7     MO 0.0        OCC NO =    2.0000000  ORB. ENERGY =   -0.282357
  0.17829101D-04  0.32891210D-04  0.53096611D-04  0.69116011D-04  0.58976818D-04
  0.20363278D-04  0.22912951D-04  0.10560558D-04 -0.29612907D-04  0.18142371D-09
  0.13910419D-09  0.69422741D-10 -0.50835184D-03 -0.38977195D-03 -0.19452352D-03
  0.54182112D+00  0.41543407D+00  0.20733071D+00 -0.48794017D-04  0.16421231D-10
 -0.30210054D-04  0.39002956D-01 -0.15964265D-05 -0.25691039D-05  0.36982348D-05
  0.16719118D-09 -0.60090663D-07 -0.34156295D-01  0.17829101D-04  0.32891210D-04
  0.53096611D-04  0.69116011D-04  0.58976818D-04  0.20363278D-04  0.22912951D-04
  0.10560558D-04 -0.29612907D-04 -0.18142371D-09 -0.13910419D-09 -0.69422741D-10
  0.50835184D-03  0.38977195D-03  0.19452352D-03  0.54182112D+00  0.41543407D+00
  0.20733071D+00 -0.48794017D-04 -0.16421231D-10  0.30210054D-04  0.39002956D-01
 -0.15964265D-05 -0.25691039D-05  0.36982348D-05  0.16719118D-09  0.60090663D-07
  0.34156295D-01 -0.23251707D-05 -0.39439295D-05 -0.44900244D-05 -0.59873291D-05
 -0.64348920D-10  0.32349376D-04  0.18213423D-01 -0.23251707D-05 -0.39439295D-05
 -0.44900244D-05 -0.59873291D-05  0.64348920D-10 -0.32349376D-04  0.18213423D-01
END DATA
 THE  HF ENERGY =    -77.329566744315 THE VIRIAL(-V/T)=   2.01019445
