 ethene                                                  
GAUSSIAN              8 MOL ORBITALS     92 PRIMITIVES        6 NUCLEI
  C    1    (CENTRE  1)   0.00002464  1.26056745  0.00000000  CHARGE =  6.0
  H    2    (CENTRE  2)   1.74749089  2.34034578  0.00000000  CHARGE =  1.0
  H    3    (CENTRE  3)  -1.74657261  2.34134550  0.00000000  CHARGE =  1.0
  C    4    (CENTRE  4)   0.00002464 -1.26068701  0.00000000  CHARGE =  6.0
  H    5    (CENTRE  5)   1.74660904 -2.34126725  0.00000000  CHARGE =  1.0
  H    6    (CENTRE  6)  -1.74782296 -2.33970667  0.00000000  CHARGE =  1.0
CENTRE ASSIGNMENTS    1  1  1  1  1  1  1  1  1  1  1  1  1  1  1  1  1  1  1  1
CENTRE ASSIGNMENTS    1  1  1  1  1  1  1  1  1  1  1  1  2  2  2  2  2  2  2  3
CENTRE ASSIGNMENTS    3  3  3  3  3  3  4  4  4  4  4  4  4  4  4  4  4  4  4  4
CENTRE ASSIGNMENTS    4  4  4  4  4  4  4  4  4  4  4  4  4  4  4  4  4  4  5  5
CENTRE ASSIGNMENTS    5  5  5  5  5  6  6  6  6  6  6  6
TYPE ASSIGNMENTS      1  1  1  1  1  1  1  1  1  2  2  2  3  3  3  4  4  4  1  2
TYPE ASSIGNMENTS      3  4  1  2  3  4  5  6  7  8  9 10  1  1  1  1  2  3  4  1
TYPE ASSIGNMENTS      1  1  1  2  3  4  1  1  1  1  1  1  1  1  1  2  2  2  3  3
TYPE ASSIGNMENTS      3  4  4  4  1  2  3  4  1  2  3  4  5  6  7  8  9 10  1  1
TYPE ASSIGNMENTS      1  1  2  3  4  1  1  1  1  2  3  4
EXPONENTS  0.3047525D+04 0.4573695D+03 0.1039487D+03 0.2921016D+02 0.9286663D+01
EXPONENTS  0.3163927D+01 0.7868272D+01 0.1881289D+01 0.5442493D+00 0.7868272D+01
EXPONENTS  0.1881289D+01 0.5442493D+00 0.7868272D+01 0.1881289D+01 0.5442493D+00
EXPONENTS  0.7868272D+01 0.1881289D+01 0.5442493D+00 0.1687145D+00 0.1687145D+00
EXPONENTS  0.1687145D+00 0.1687145D+00 0.4380000D-01 0.4380000D-01 0.4380000D-01
EXPONENTS  0.4380000D-01 0.8000000D+00 0.8000000D+00 0.8000000D+00 0.8000000D+00
EXPONENTS  0.8000000D+00 0.8000000D+00 0.1873114D+02 0.2825394D+01 0.6401217D+00
EXPONENTS  0.1612778D+00 0.1100000D+01 0.1100000D+01 0.1100000D+01 0.1873114D+02
EXPONENTS  0.2825394D+01 0.6401217D+00 0.1612778D+00 0.1100000D+01 0.1100000D+01
EXPONENTS  0.1100000D+01 0.3047525D+04 0.4573695D+03 0.1039487D+03 0.2921016D+02
EXPONENTS  0.9286663D+01 0.3163927D+01 0.7868272D+01 0.1881289D+01 0.5442493D+00
EXPONENTS  0.7868272D+01 0.1881289D+01 0.5442493D+00 0.7868272D+01 0.1881289D+01
EXPONENTS  0.5442493D+00 0.7868272D+01 0.1881289D+01 0.5442493D+00 0.1687145D+00
EXPONENTS  0.1687145D+00 0.1687145D+00 0.1687145D+00 0.4380000D-01 0.4380000D-01
EXPONENTS  0.4380000D-01 0.4380000D-01 0.8000000D+00 0.8000000D+00 0.8000000D+00
EXPONENTS  0.8000000D+00 0.8000000D+00 0.8000000D+00 0.1873114D+02 0.2825394D+01
EXPONENTS  0.6401217D+00 0.1612778D+00 0.1100000D+01 0.1100000D+01 0.1100000D+01
EXPONENTS  0.1873114D+02 0.2825394D+01 0.6401217D+00 0.1612778D+00 0.1100000D+01
EXPONENTS  0.1100000D+01 0.1100000D+01
MO    1     MO 0.0        OCC NO =    2.0000000  ORB. ENERGY =  -10.195750
  0.37747569D+00  0.69636894D+00  0.11241554D+01  0.14633163D+01  0.12486504D+01
  0.43112899D+00 -0.13835047D-01 -0.63765604D-02  0.17880541D-01 -0.27152927D-06
 -0.20819142D-06 -0.10390211D-06  0.29890784D-03  0.22918357D-03  0.11437866D-03
  0.00000000D+00  0.00000000D+00  0.00000000D+00 -0.11660062D-02  0.85777889D-07
 -0.28146657D-04  0.00000000D+00  0.47422808D-04  0.11543091D-07 -0.22897228D-04
  0.00000000D+00 -0.73582662D-02 -0.73463494D-02 -0.77140299D-02 -0.79174605D-06
  0.00000000D+00  0.00000000D+00 -0.54163212D-04 -0.91871060D-04 -0.10459195D-03
  0.16729640D-03  0.24446716D-03  0.20790633D-04  0.00000000D+00 -0.54267621D-04
 -0.92048157D-04 -0.10479357D-03  0.16749671D-03 -0.24472210D-03  0.21000051D-04
  0.00000000D+00  0.37537696D+00  0.69249720D+00  0.11179052D+01  0.14551804D+01
  0.12417081D+01  0.42873196D+00 -0.13756842D-01 -0.63405159D-02  0.17779468D-01
  0.27567563D-06  0.21137059D-06  0.10548874D-06 -0.30070832D-03 -0.23056406D-03
 -0.11506763D-03  0.00000000D+00  0.00000000D+00  0.00000000D+00 -0.11524713D-02
 -0.61502041D-07  0.30281800D-04  0.00000000D+00  0.39399138D-04 -0.10962317D-07
  0.22003277D-04  0.00000000D+00 -0.73194619D-02 -0.73092033D-02 -0.76721416D-02
 -0.97425515D-06  0.00000000D+00  0.00000000D+00 -0.54039036D-04 -0.91660432D-04
 -0.10435216D-03  0.16651377D-03  0.24236188D-03 -0.20167827D-04  0.00000000D+00
 -0.53893368D-04 -0.91413353D-04 -0.10407087D-03  0.16632278D-03 -0.24203902D-03
 -0.19790958D-04  0.00000000D+00
MO    2     MO 0.0        OCC NO =    2.0000000  ORB. ENERGY =  -10.194875
 -0.37555539D+00 -0.69282635D+00 -0.11184366D+01 -0.14558721D+01 -0.12422983D+01
 -0.42893574D+00  0.14021526D-01  0.64625087D-02 -0.18121549D-01  0.12388495D-06
  0.94987125D-07  0.47405232D-07  0.34648301D-03  0.26566119D-03  0.13258355D-03
  0.00000000D+00  0.00000000D+00  0.00000000D+00  0.24566144D-02  0.30809738D-07
 -0.40261813D-03  0.00000000D+00 -0.14280667D-02  0.22543519D-08  0.15874264D-03
  0.00000000D+00  0.69395618D-02  0.67246351D-02  0.75137488D-02  0.32498883D-06
  0.00000000D+00  0.00000000D+00  0.42157445D-04  0.71507006D-04  0.81408199D-04
 -0.17421195D-03 -0.40210144D-03 -0.13911944D-03  0.00000000D+00  0.42235530D-04
  0.71639453D-04  0.81558986D-04 -0.17418717D-03  0.40210990D-03 -0.13915369D-03
  0.00000000D+00  0.37765308D+00  0.69669619D+00  0.11246837D+01  0.14640040D+01
  0.12492372D+01  0.43133160D+00 -0.14098571D-01 -0.64980184D-02  0.18221122D-01
  0.27731073D-07  0.21262428D-07  0.10611442D-07  0.34506901D-03  0.26457703D-03
  0.13204248D-03  0.00000000D+00  0.00000000D+00  0.00000000D+00 -0.24630795D-02
  0.93204321D-07 -0.40250181D-03  0.00000000D+00  0.14283095D-02  0.48038609D-08
  0.15886114D-03  0.00000000D+00 -0.69802474D-02 -0.67657994D-02 -0.75567077D-02
 -0.69433221D-06  0.00000000D+00  0.00000000D+00 -0.42567228D-04 -0.72202076D-04
 -0.82199511D-04  0.17508312D-03  0.40347044D-03 -0.13937290D-03  0.00000000D+00
 -0.42444075D-04 -0.71993185D-04 -0.81961696D-04  0.17517677D-03 -0.40336370D-03
 -0.13930440D-03  0.00000000D+00
MO    3     MO 0.0        OCC NO =    2.0000000  ORB. ENERGY =   -0.765140
 -0.86232685D-01 -0.15908247D+00 -0.25680843D+00 -0.33428827D+00 -0.28524878D+00
 -0.98489550D-01 -0.12510663D+00 -0.57661531D-01  0.16168895D+00 -0.56040073D-06
 -0.42967973D-06 -0.21444030D-06 -0.13837100D+00 -0.10609410D+00 -0.52948393D-01
  0.00000000D+00  0.00000000D+00  0.00000000D+00  0.42428827D-01 -0.35145928D-05
 -0.12113210D-02  0.00000000D+00  0.40211501D-04 -0.32745486D-06 -0.78790283D-05
  0.00000000D+00 -0.10672504D-01  0.60142302D-02 -0.18589794D-01 -0.11923000D-05
  0.00000000D+00  0.00000000D+00  0.18541675D-01  0.31450190D-01  0.35804929D-01
  0.38760560D-02 -0.12132732D-01 -0.99386230D-02  0.00000000D+00  0.18542608D-01
  0.31451772D-01  0.35806731D-01  0.38706299D-02  0.12126018D-01 -0.99434992D-02
  0.00000000D+00 -0.86237801D-01 -0.15909190D+00 -0.25682366D+00 -0.33430810D+00
 -0.28526571D+00 -0.98495393D-01 -0.12511392D+00 -0.57664892D-01  0.16169838D+00
 -0.16493378D-04 -0.12646076D-04 -0.63112783D-05  0.13836798D+00  0.10609179D+00
  0.52947239D-01  0.00000000D+00  0.00000000D+00  0.00000000D+00  0.42431169D-01
  0.28588707D-05  0.12123019D-02  0.00000000D+00  0.38483858D-04  0.33447395D-06
  0.77103985D-05  0.00000000D+00 -0.10670225D-01  0.60102501D-02 -0.18590461D-01
 -0.37338927D-05  0.00000000D+00  0.00000000D+00  0.18545913D-01  0.31457379D-01
  0.35813114D-01  0.38717114D-02 -0.12128003D-01  0.99443509D-02  0.00000000D+00
  0.18547439D-01  0.31459967D-01  0.35816061D-01  0.38780275D-02  0.12138925D-01
  0.99374489D-02  0.00000000D+00
MO    4     MO 0.0        OCC NO =    2.0000000  ORB. ENERGY =   -0.585311
 -0.66555575D-01 -0.12278204D+00 -0.19820828D+00 -0.25800829D+00 -0.22015894D+00
 -0.76015592D-01 -0.10048673D+00 -0.46314240D-01  0.12986996D+00 -0.43800238D-04
 -0.33583244D-04 -0.16760392D-04  0.21863278D+00  0.16763375D+00  0.83660991D-01
  0.00000000D+00  0.00000000D+00  0.00000000D+00  0.45460402D-01 -0.76790182D-06
  0.83118110D-02  0.00000000D+00 -0.63197227D-02 -0.29272534D-07  0.88567884D-03
  0.00000000D+00  0.46086381D-02 -0.15061440D-01 -0.12433114D-01 -0.13745104D-04
  0.00000000D+00  0.00000000D+00  0.31886646D-01  0.54085787D-01  0.61574757D-01
  0.12580928D-01 -0.15840413D-01 -0.59286532D-02  0.00000000D+00  0.31907602D-01
  0.54121333D-01  0.61615225D-01  0.12589343D-01  0.15841207D-01 -0.59428772D-02
  0.00000000D+00  0.66550730D-01  0.12277310D+00  0.19819386D+00  0.25798951D+00
  0.22014292D+00  0.76010059D-01  0.10047895D+00  0.46310656D-01 -0.12985991D+00
 -0.48167042D-04 -0.36931433D-04 -0.18431373D-04  0.21854295D+00  0.16756487D+00
  0.83626615D-01  0.00000000D+00  0.00000000D+00  0.00000000D+00 -0.45454094D-01
 -0.12731598D-05  0.83084601D-02  0.00000000D+00  0.63198254D-02 -0.38923997D-07
  0.88560071D-03  0.00000000D+00 -0.46116210D-02  0.15066133D-01  0.12431733D-01
  0.18765607D-04  0.00000000D+00  0.00000000D+00 -0.31904978D-01 -0.54116881D-01
 -0.61610156D-01 -0.12587753D-01  0.15839343D-01 -0.59421946D-02  0.00000000D+00
 -0.31877512D-01 -0.54070293D-01 -0.61557118D-01 -0.12577325D-01 -0.15838862D-01
 -0.59215809D-02  0.00000000D+00
MO    5     MO 0.0        OCC NO =    2.0000000  ORB. ENERGY =   -0.472978
 -0.10901424D-04 -0.20110999D-04 -0.32465388D-04 -0.42260289D-04 -0.36060782D-04
 -0.12450921D-04 -0.17696977D-04 -0.81565207D-05  0.22871735D-04  0.42691332D+00
  0.32733005D+00  0.16336064D+00  0.58985090D-04  0.45226026D-04  0.22570957D-04
  0.00000000D+00  0.00000000D+00  0.00000000D+00  0.11303862D-04  0.18241458D-01
  0.35665767D-05  0.00000000D+00 -0.83322688D-05  0.35329851D-03  0.10928094D-05
  0.00000000D+00  0.13033223D-04 -0.10461005D-04 -0.92544080D-06  0.46263926D-02
  0.00000000D+00  0.00000000D+00  0.33799869D-01  0.57330975D-01  0.65269289D-01
  0.18788538D-01 -0.49011110D-02 -0.95822925D-02  0.00000000D+00 -0.33773677D-01
 -0.57286549D-01 -0.65218711D-01 -0.18773829D-01 -0.48868634D-02  0.95861681D-02
  0.00000000D+00  0.62243807D-05  0.11482767D-04  0.18536746D-04  0.24129336D-04
  0.20589606D-04  0.71090962D-05  0.10163393D-04  0.46842988D-05 -0.13135263D-04
  0.42711238D+00  0.32748268D+00  0.16343681D+00 -0.99790709D-04 -0.76513186D-04
 -0.38185442D-04  0.00000000D+00  0.00000000D+00  0.00000000D+00 -0.50615679D-05
  0.18244923D-01 -0.27745330D-05  0.00000000D+00  0.87907370D-05  0.35313311D-03
  0.88054424D-06  0.00000000D+00 -0.15118569D-04  0.12181783D-04  0.98217828D-06
 -0.46427315D-02  0.00000000D+00  0.00000000D+00  0.33802742D-01  0.57335849D-01
  0.65274837D-01  0.18791278D-01 -0.48950312D-02  0.95892784D-02  0.00000000D+00
 -0.33815905D-01 -0.57358175D-01 -0.65300254D-01 -0.18800412D-01 -0.49058305D-02
 -0.95856353D-02  0.00000000D+00
MO    6     MO 0.0        OCC NO =    2.0000000  ORB. ENERGY =   -0.425125
 -0.69149027D-02 -0.12756645D-01 -0.20593181D-01 -0.26806203D-01 -0.22873781D-01
 -0.78977670D-02 -0.12282041D-01 -0.56607814D-02  0.15873422D-01  0.45616443D-03
  0.34975795D-03  0.17455373D-03 -0.53781240D+00 -0.41236044D+00 -0.20579676D+00
  0.00000000D+00  0.00000000D+00  0.00000000D+00 -0.19754077D-03  0.11995364D-04
 -0.20406171D-01  0.00000000D+00 -0.11481879D-02 -0.13314559D-06 -0.92589271D-03
  0.00000000D+00 -0.20327085D-01  0.84341874D-02 -0.24022348D-03  0.61958608D-04
  0.00000000D+00  0.00000000D+00 -0.27130595D-01 -0.46018625D-01 -0.52390578D-01
 -0.18267861D-01  0.83935213D-02 -0.71564857D-02  0.00000000D+00 -0.27242210D-01
 -0.46207944D-01 -0.52606111D-01 -0.18349783D-01 -0.84127718D-02 -0.71266362D-02
  0.00000000D+00 -0.68946808D-02 -0.12719340D-01 -0.20532958D-01 -0.26727811D-01
 -0.22806889D-01 -0.78746708D-02 -0.12251477D-01 -0.56466945D-02  0.15833921D-01
 -0.30995420D-03 -0.23765322D-03 -0.11860561D-03  0.53785244D+00  0.41239113D+00
  0.20581208D+00  0.00000000D+00  0.00000000D+00  0.00000000D+00 -0.21804612D-03
 -0.46373982D-05  0.20406995D-01  0.00000000D+00 -0.11581214D-02  0.32150292D-06
  0.92496242D-03  0.00000000D+00 -0.20333079D-01  0.84504129D-02 -0.23770449D-03
  0.67909924D-04  0.00000000D+00  0.00000000D+00 -0.27240173D-01 -0.46204488D-01
 -0.52602177D-01 -0.18347729D-01  0.84146910D-02  0.71312460D-02  0.00000000D+00
 -0.27139921D-01 -0.46034444D-01 -0.52408587D-01 -0.18272805D-01 -0.83934166D-02
  0.71609639D-02  0.00000000D+00
MO    7     MO 0.0        OCC NO =    2.0000000  ORB. ENERGY =   -0.360764
  0.19672663D-04  0.36292222D-04  0.58586899D-04  0.76262734D-04  0.65075129D-04
  0.22468878D-04  0.35460091D-04  0.16343523D-04 -0.45828946D-04  0.40041796D+00
  0.30701510D+00  0.15322205D+00  0.57380085D-03  0.43995410D-03  0.21956793D-03
  0.00000000D+00  0.00000000D+00  0.00000000D+00 -0.82024713D-05  0.19095029D-01
  0.26147258D-04  0.00000000D+00  0.20203167D-05  0.10909937D-02  0.14864532D-05
  0.00000000D+00  0.38072938D-04 -0.17427956D-04  0.42968928D-06  0.52884897D-01
  0.00000000D+00  0.00000000D+00  0.42717574D-01  0.72457091D-01  0.82489838D-01
  0.33263311D-01 -0.43270491D-02 -0.65160979D-02  0.00000000D+00 -0.42653878D-01
 -0.72349050D-01 -0.82366836D-01 -0.33212507D-01 -0.43005827D-02  0.65446416D-02
  0.00000000D+00  0.16100196D-04  0.29701718D-04  0.47947783D-04  0.62413767D-04
  0.53257780D-04  0.18388632D-04  0.29255462D-04  0.13483816D-04 -0.37810027D-04
 -0.40022279D+00 -0.30686545D+00 -0.15314737D+00 -0.55389267D-03 -0.42468976D-03
 -0.21194996D-03  0.00000000D+00  0.00000000D+00  0.00000000D+00 -0.48193123D-05
 -0.19083187D-01 -0.27021538D-04  0.00000000D+00  0.23175810D-05 -0.10905438D-02
 -0.14847148D-05  0.00000000D+00  0.45409002D-04 -0.25822339D-04  0.12809850D-06
  0.52871272D-01  0.00000000D+00  0.00000000D+00 -0.42633840D-01 -0.72315063D-01
 -0.82328143D-01 -0.33197227D-01  0.43000726D-02 -0.65380401D-02  0.00000000D+00
  0.42704308D-01  0.72434589D-01  0.82464220D-01  0.33251685D-01  0.43333457D-02
  0.65062265D-02  0.00000000D+00
MO    8     MO 0.0        OCC NO =    2.0000000  ORB. ENERGY =   -0.278271
  0.00000000D+00  0.00000000D+00  0.00000000D+00  0.00000000D+00  0.00000000D+00
  0.00000000D+00 -0.00000000D+00 -0.00000000D+00  0.00000000D+00  0.00000000D+00
  0.00000000D+00  0.00000000D+00  0.00000000D+00  0.00000000D+00  0.00000000D+00
  0.52042352D+00  0.39902775D+00  0.19914281D+00  0.00000000D+00  0.00000000D+00
  0.00000000D+00  0.38417151D-01  0.00000000D+00  0.00000000D+00  0.00000000D+00
  0.15718567D-02  0.00000000D+00  0.00000000D+00  0.00000000D+00  0.00000000D+00
 -0.14544572D-05 -0.34531963D-01  0.00000000D+00  0.00000000D+00  0.00000000D+00
  0.00000000D+00  0.00000000D+00  0.00000000D+00  0.16385173D-01  0.00000000D+00
  0.00000000D+00  0.00000000D+00  0.00000000D+00  0.00000000D+00  0.00000000D+00
  0.16387456D-01  0.00000000D+00  0.00000000D+00  0.00000000D+00  0.00000000D+00
  0.00000000D+00  0.00000000D+00 -0.00000000D+00 -0.00000000D+00  0.00000000D+00
  0.00000000D+00  0.00000000D+00  0.00000000D+00  0.00000000D+00  0.00000000D+00
  0.00000000D+00  0.52043012D+00  0.39903281D+00  0.19914534D+00  0.00000000D+00
  0.00000000D+00  0.00000000D+00  0.38417740D-01  0.00000000D+00  0.00000000D+00
  0.00000000D+00  0.15717240D-02  0.00000000D+00  0.00000000D+00  0.00000000D+00
  0.00000000D+00 -0.60128554D-06  0.34535115D-01  0.00000000D+00  0.00000000D+00
  0.00000000D+00  0.00000000D+00  0.00000000D+00  0.00000000D+00  0.16389758D-01
  0.00000000D+00  0.00000000D+00  0.00000000D+00  0.00000000D+00  0.00000000D+00
  0.00000000D+00  0.16387614D-01
END DATA
 THE  HF ENERGY =    -78.599645583238 THE VIRIAL(-V/T)=   2.01092357
