
 Primary working directories    : /data/scratch
 Secondary working directories  : /data/scratch
 Wavefunction directory         : /home/ospite/wfu/
 Main file repository           : /data/scratch/

 ARCHNAME  : Linux/x86_64
 FC        : /usr/bin/gfortran
 FCVERSION : 4.8.5
 BLASLIB   : 
 id        : polimi

 Nodes     nprocs
 molmod       1

 Using default tuning parameters: mindgm=1; mindgv=20; mindgc=4; mindgr=1; noblas=0; mincuda=1000; minvec=7
 default implementation of scratch files=df  

 memory, 50, m
 nosym
 
 dists = [1.0, 1.1, 1.2, 1.3, 1.4, 1.5, 1.6, 1.7, 1.8, 1.9, 2.0, 2.1, 2.2, 2.3, 2.4, 2.5, 2.6, 2.7, 2.8, 2.9, 3.0.]
 
 geometry={angstrom
 C1
 H2 C1 r
 H3 C1 r 2 109.5
 H4 C1 r 2 109.5 3 120.
 H5 C1 r 2 109.5 3 -120.
 }
 
 do i=1,#dists
 r=dists(i)
 
 basis=cc-pvdz
 hf
 {casscf;closed,4;occ,6;wf,10,1,0;}
 {rs2,shift=0.2}
 ecas(i)=energy
 end do
 
 {table,dists,ecas}
 
 put,molden,molpro.molden

 Variables initialized (661), CPU time= 0.00 sec
 Commands  initialized (458), CPU time= 0.00 sec, 486 directives.
 Default parameters read. Elapsed time= 0.02 sec

 Checking input...
 Passed
1


                                         ***  PROGRAM SYSTEM MOLPRO  ***
                         Copyright, University College Cardiff Consultants Limited, 2008

                                    Version 2010.1 linked Mar  6 2018 16:01:50


 **********************************************************************************************************************************
 LABEL *                                                                                 
 Linux-3.10.0-1160.108.1.el7.x86_64/molmod(x86_64) 64 bit serial version                 DATE: 08-May-24          TIME: 14:44:05  
 **********************************************************************************************************************************

 SHA1:             d90fb18d49a3be29a79769f900c595ef3b8176e2
 **********************************************************************************************************************************

 Variable memory set to   50000000 words,  buffer space   230000 words

 SETTING DISTS(1)       =         1.00000000                                  
 SETTING DISTS(2)       =         1.10000000                                  
 SETTING DISTS(3)       =         1.20000000                                  
 SETTING DISTS(4)       =         1.30000000                                  
 SETTING DISTS(5)       =         1.40000000                                  
 SETTING DISTS(6)       =         1.50000000                                  
 SETTING DISTS(7)       =         1.60000000                                  
 SETTING DISTS(8)       =         1.70000000                                  
 SETTING DISTS(9)       =         1.80000000                                  
 SETTING DISTS(10)      =         1.90000000                                  
 SETTING DISTS(11)      =         2.00000000                                  
 SETTING DISTS(12)      =         2.10000000                                  
 SETTING DISTS(13)      =         2.20000000                                  
 SETTING DISTS(14)      =         2.30000000                                  
 SETTING DISTS(15)      =         2.40000000                                  
 SETTING DISTS(16)      =         2.50000000                                  
 SETTING DISTS(17)      =         2.60000000                                  
 SETTING DISTS(18)      =         2.70000000                                  
 SETTING DISTS(19)      =         2.80000000                                  
 SETTING DISTS(20)      =         2.90000000                                  
 SETTING DISTS(21)      =         3.00000000                                  
 ZSYMEL=NOSYM


 DO I                   =         1.00000000   
 SETTING R              =         1.00000000                                  
 SETTING BASIS          =    CC-PVDZ


 Recomputing integrals since basis changed


 Using spherical harmonics

 Library entry C      S cc-pVDZ              selected for orbital group  1
 Library entry C      P cc-pVDZ              selected for orbital group  1
 Library entry C      D cc-pVDZ              selected for orbital group  1
 Library entry H      S cc-pVDZ              selected for orbital group  2
 Library entry H      P cc-pVDZ              selected for orbital group  2

1PROGRAM * SEWARD (Integral evaluation for generally contracted gaussian basis sets)     Author: Roland Lindh, 1990

 Geometry written to block  1 of record 700

 Orientation using atomic masses  
 Molecule type: Symmetric top,     Order of principal axis = 3
 Rotational constants:     187.9908136    187.9908136    188.0910572 GHz  (calculated with average atomic masses)

 Point group  C1  



 ATOMIC COORDINATES

 NR  ATOM    CHARGE       X              Y              Z

   1  C1      6.00   -0.000000000    0.000000000    0.000168663
   2  H2      1.00   -0.000000000    0.000000000    1.889894794
   3  H3      1.00    1.781334258    0.000000000   -0.630634882
   4  H4      1.00   -0.890667129   -1.542680720   -0.630634882
   5  H5      1.00   -0.890667129    1.542680720   -0.630634882

 Bond lengths in Bohr (Angstrom)

 1-2  1.889726131  1-3  1.889726131  1-4  1.889726131  1-5  1.889726131
     ( 1.000000000)     ( 1.000000000)     ( 1.000000000)     ( 1.000000000)

 Bond angles

  2-1-3  109.50000000   2-1-4  109.50000000   2-1-5  109.50000000   3-1-4  109.44242594

  3-1-5  109.44242594   4-1-5  109.44242594

 NUCLEAR CHARGE:                   10
 NUMBER OF PRIMITIVE AOS:          55
 NUMBER OF SYMMETRY AOS:           54
 NUMBER OF CONTRACTIONS:           34   (  34A   )
 NUMBER OF CORE ORBITALS:           1   (   1A   )
 NUMBER OF VALENCE ORBITALS:        8   (   8A   )


 NUCLEAR REPULSION ENERGY   14.64457445


 Eigenvalues of metric

         1 0.102E-01 0.273E-01 0.273E-01 0.273E-01 0.303E-01 0.484E-01 0.485E-01 0.485E-01


 Contracted 2-electron integrals neglected if value below      1.0D-11
 AO integral compression algorithm  1   Integral accuracy      1.0D-11

     1.049 MB (compressed) written to integral file ( 67.3%)


 NUMBER OF SORTED TWO-ELECTRON INTEGRALS:     177310.     BUFFER LENGTH:  32768
 NUMBER OF SEGMENTS:   1  SEGMENT LENGTH:     177310      RECORD LENGTH: 524288

 Memory used in sort:       0.73 MW

 SORT1 READ      219389. AND WROTE      146782. INTEGRALS IN      1 RECORDS. CPU TIME:     0.00 SEC, REAL TIME:     0.00 SEC
 SORT2 READ      146782. AND WROTE      177310. INTEGRALS IN      4 RECORDS. CPU TIME:     0.00 SEC, REAL TIME:     0.00 SEC

 FILE SIZES:   FILE 1:     3.7 MBYTE,  FILE 4:     4.2 MBYTE,   TOTAL:      7.9 MBYTE

 OPERATOR DM      FOR CENTER  0  COORDINATES:    0.000000    0.000000    0.000000


 **********************************************************************************************************************************
 DATASETS  * FILE   NREC   LENGTH (MB)   RECORD NAMES
              1      19        3.42       500      610      700      900      950      970     1000      129      960     1100   
                                          VAR    BASINP    GEOM    SYMINP    ZMAT    AOBASIS   BASIS     P2S    ABASIS      S 
                                         1400     1410     1200     1210     1080     1600     1650     1300     1700   
                                           T        V       H0       H01     AOSYM     SMH    MOLCAS    ERIS     OPER   

 PROGRAMS   *        TOTAL       INT
 CPU TIMES  *         0.01      0.01
 REAL TIME  *         0.13 SEC
 DISK USED  *         8.40 MB      
 **********************************************************************************************************************************

1PROGRAM * RHF-SCF (CLOSED SHELL)       Authors: W. Meyer, H.-J. Werner


 NUMBER OF ELECTRONS:       5+    5-    SPACE SYMMETRY=1    SPIN SYMMETRY: Singlet 
 CONVERGENCE THRESHOLDS:    1.00E-05 (Density)    1.00E-07 (Energy)
 MAX. NUMBER OF ITERATIONS:       60
 INTERPOLATION TYPE:            DIIS
 INTERPOLATION STEPS:              2 (START)      1 (STEP)
 LEVEL SHIFTS:                  0.00 (CLOSED)  0.00 (OPEN) 



 Orbital guess generated from atomic densities. Full valence occupancy:    9

 Molecular orbital dump at record        2100.2

 ITERATION    DDIFF          GRAD             ENERGY        2-EL.EN.            DIPOLE MOMENTS         DIIS
    1      0.000D+00      0.000D+00       -40.14875143     55.242072   -0.00000   -0.00000   -0.00053    0
    2      0.000D+00      0.109D-01       -40.16949854     53.827975   -0.00000    0.00000   -0.00022    1
    3      0.232D-01      0.371D-02       -40.17180536     54.269021   -0.00000    0.00000   -0.00026    2
    4      0.720D-02      0.920D-03       -40.17208096     54.215021   -0.00000    0.00000   -0.00023    3
    5      0.248D-02      0.916D-04       -40.17208318     54.217545   -0.00000    0.00000   -0.00022    4
    6      0.342D-03      0.563D-05       -40.17208319     54.217406   -0.00000   -0.00000   -0.00022    5
    7      0.319D-04      0.305D-06       -40.17208319     54.217405   -0.00000   -0.00000   -0.00022    5
    8      0.910D-06      0.327D-07       -40.17208319     54.217405   -0.00000   -0.00000   -0.00022    0

 Final occupancy:   5

 !RHF STATE 1.1 Energy                -40.172083193687
 Nuclear energy                        14.64457445
 One-electron energy                  -81.92536003
 Two-electron energy                   27.10870238
 Virial quotient                       -0.98766112
 !RHF STATE 1.1 Dipole moment          -0.00000000    -0.00000000    -0.00022440
 Dipole moment /Debye                  -0.00000000    -0.00000000    -0.00057034

 Orbital energies:

         1.1          2.1          3.1          4.1          5.1          6.1          7.1
    -11.174191    -0.981594    -0.566188    -0.566002    -0.566002     0.202238     0.286472


 **********************************************************************************************************************************
 DATASETS  * FILE   NREC   LENGTH (MB)   RECORD NAMES
              1      19        3.42       500      610      700      900      950      970     1000      129      960     1100   
                                          VAR    BASINP    GEOM    SYMINP    ZMAT    AOBASIS   BASIS     P2S    ABASIS      S 
                                         1400     1410     1200     1210     1080     1600     1650     1300     1700   
                                           T        V       H0       H01     AOSYM     SMH    MOLCAS    ERIS     OPER   

              2       3        0.31       700     1000     2100   
                                         GEOM     BASIS     RHF  

 PROGRAMS   *        TOTAL        HF       INT
 CPU TIMES  *         0.02      0.01      0.01
 REAL TIME  *         0.14 SEC
 DISK USED  *         8.40 MB      
 **********************************************************************************************************************************

1PROGRAM * MULTI (Direct Multiconfiguration SCF)       Authors: P.J. Knowles, H.-J. Werner (1984)     S.T. Elbert (1988)


 Number of closed-shell orbitals:  4 (  4 )
 Number of active  orbitals:       2 (  2 )
 Number of external orbitals:     28 ( 28 )

 State symmetry 1

 Number of electrons:     2    Spin symmetry=Singlet   Space symmetry=1
 Number of states:        1
 Number of CSFs:          3   (4 determinants, 4 intermediate states)

 Molecular orbitals read from record     2100.2  Type=RHF/CANONICAL (state 1.1)

 Wavefunction dump at record             2140.2

 Convergence thresholds  0.10E-01 (gradient)  0.10E-05 (energy)  0.10E-02 (step length)

 Number of orbital rotations:     176     (   8 Core/Active  112 Core/Virtual   0 Active/Active   56 Active/Virtual)
 Total number of variables:       180


 ITER. MIC  NCI  NEG     ENERGY(VAR)     ENERGY(PROJ)   ENERGY CHANGE     GRAD(0)  GRAD(ORB)   GRAD(CI)     STEP       TIME

   1   50    7    0     -40.17217825     -40.17934915   -0.00717090    0.00046494 0.00096071 0.00000000  0.76D+00      0.00
   2   40    8    0     -40.18108226     -40.18450171   -0.00341944    0.02362019 0.00000495 0.00000000  0.43D+00      0.00
   3   29    8    0     -40.18499106     -40.18520192   -0.00021086    0.00978236 0.00000163 0.00000000  0.10D+00      0.01
   4   29    8    0     -40.18520519     -40.18520558   -0.00000039    0.00038502 0.00000005 0.00000000  0.47D-02      0.01
   5   29    4    0     -40.18520558     -40.18520558   -0.00000000    0.00000024 0.00000000 0.00000000  0.47D-05      0.01

 ** WVFN ****  CONVERGENCE REACHED, FINAL GRADIENT:  0.12D-08


 First order charge density matrix for state 1.1 saved on record  2140.2 (density set 1)

 Results for state 1.1
 =====================

 !MCSCF STATE 1.1 Energy              -40.185205581452
 Nuclear energy                        14.64457445
 Kinetic energy                        40.70478243
 One electron energy                  -81.92227625
 Two electron energy                   27.09249622
 Virial ratio                           1.98723548

 !MCSCF STATE 1.1 Dipole moment         0.00282734     0.00489709     0.00178323
 Dipole moment /Debye                   0.00718590     0.01244635     0.00453223


 Natural orbital dump at molpro section                    2140.2    (Orbital set 2)



 **********************************************************************************************************************************
 DATASETS  * FILE   NREC   LENGTH (MB)   RECORD NAMES
              1      20        3.74       500      610      700      900      950      970     1000      129      960     1100   
                                          VAR    BASINP    GEOM    SYMINP    ZMAT    AOBASIS   BASIS     P2S    ABASIS      S 
                                         1400     1410     1200     1210     1080     1600     1650     1300     1700     1380   
                                           T        V       H0       H01     AOSYM     SMH    MOLCAS    ERIS     OPER     JKOP   

              2       4        0.39       700     1000     2100     2140   
                                         GEOM     BASIS     RHF     MCSCF   

 PROGRAMS   *        TOTAL    CASSCF        HF       INT
 CPU TIMES  *         0.03      0.01      0.01      0.01
 REAL TIME  *         0.23 SEC
 DISK USED  *         8.86 MB      
 **********************************************************************************************************************************

1PROGRAM * RS2 (Multireference RS Perturbation Theory)     Authors: H.-J. Werner (1993), P. Celani (1998)


 Level shift= 0.20

 Convergence thresholds:  THRVAR = 1.00D-08  THRDEN = 1.00D-06

 Number of optimized states:  1  Roots:   1
 Number of reference states:  1  Roots:   1

 Reference symmetry:                   1   Singlet 
 Number of electrons:                 10
 Maximum number of shells:             4
 Maximum number of spin couplings:     5

 Reference space:        3 conf        3 CSFs
 N elec internal:       15 conf       15 CSFs
 N-1 el internal:       23 conf       32 CSFs
 N-2 el internal:       25 conf       52 CSFs

 Number of electrons in valence space:                      8
 Maximum number of open shell orbitals in reference space:  2
 Maximum number of open shell orbitals in internal spaces:  6


 Number of core orbitals:           1 (   1 )
 Number of closed-shell orbitals:   3 (   3 )
 Number of active  orbitals:        2 (   2 )
 Number of external orbitals:      28 (  28 )

 Molecular orbitals read from record     2140.2  Type=MCSCF/NATURAL (state 1.1)

 Coulomb and exchange operators available. No transformation done.

 Number of p-space configurations:   1

 Reference wavefunction optimized for reference space (refopt=1)

 State     Reference Energy 
   1         -40.18520558

 Number of blocks in overlap matrix:     2   Smallest eigenvalue:  0.10D+01
 Number of N-2 electron functions:      22
 Number of N-1 electron functions:      32

 Number of internal configurations:                   15
 Number of singly external configurations:           896
 Number of doubly external configurations:          8680
 Total number of contracted configurations:         9591
 Total number of uncontracted configurations:      21351

 Weight factors for SA-density in H0:    1.000000

 FIMAX=  0.15D+00  FXMAX=  0.68D-12  DIAG=  F  T  NOREF=1  NOINT=0  IHPPD=2

 Nuclear energy:                      14.64457445
 Core energy:                        -36.59171783
 Zeroth-order valence energy:         -5.32986890
 Zeroth-order total energy:          -27.27701228
 First-order energy:                 -12.90819330

 Using uncontracted singles

 Diagonal Coupling coefficients finished.               Storage:     868 words, CPU-Time:      0.00 seconds.
 Energy denominators for pairs finished in 0 passes.    Storage:    2280 words, CPU-time:      0.00 seconds.

 A level shift of 0.20 is applied.

  ITER. STATE  ROOT     SQ.NORM     CORR.ENERGY   TOTAL ENERGY   ENERGY CHANGE       DEN1      VAR(S)    VAR(P)      TIME
    1     1     1     1.00416195    -0.00083239   -40.18603797    -0.00083239    -0.13600910  0.42D-02  0.35D-01     0.01
    2     1     1     1.03948093    -0.14457136   -40.32977695    -0.14373898    -0.00056428  0.47D-04  0.98D-04     0.01
    3     1     1     1.03995549    -0.14519214   -40.33039772    -0.00062078    -0.00039473  0.42D-05  0.13D-05     0.01
    4     1     1     1.04001487    -0.14522233   -40.33042791    -0.00003019    -0.00000757  0.10D-06  0.12D-06     0.01
    5     1     1     1.04003547    -0.14522718   -40.33043276    -0.00000484    -0.00001326  0.76D-08  0.38D-08     0.01
    6     1     1     1.04003783    -0.14522773   -40.33043331    -0.00000056    -0.00000035  0.37D-09  0.25D-09     0.01
    7     1     1     1.04003871    -0.14522787   -40.33043345    -0.00000014    -0.00000052  0.24D-10  0.16D-10     0.01

 Energies without level shift correction:

    7     1     1     1.04003871    -0.13722013   -40.32242571

 Energy contributions for state 1.1:
 ===================================

            Energy contr.      SQ.Norm of FOWF
 Space I     -0.00027664          0.00010472
 Space S     -0.01442422          0.00459456
 Space P     -0.12251927          0.03533943


 =====================================
 Analysis of CPU times by interactions
 =====================================

       I      S      P

 I   0.0%
 S   0.0%   0.0%
 P   0.0%   0.0%   0.0%

 Initialization: 100.0%
 Other:            0.0%

 Total CPU:        0.0 seconds
 =====================================



 Reference coefficients greater than 0.0500000
 =============================================
 22220           0.9967656
 22202          -0.0803636



 RESULTS FOR STATE 1.1
 =====================

 Coefficient of reference function:   C(0) = 1.00000000 (fixed)   1.00000000 (relaxed)

 Energy contributions of configuration classes

 CLASS          SQ.NORM        ECORR1        ECORR2
 +++++++++++++++++++++++++++++++++++++++++++++++++++
 Internals    0.00010472   -0.00027661    0.14464220
 Singles      0.00459456   -0.01442415   -0.03053187
 Pairs        0.03533943   -0.12251924   -0.25933820
 Total        1.04003871   -0.13722001   -0.14522787
 +++++++++++++++++++++++++++++++++++++++++++++++++++


 Reference energy                     -40.18520558
 Nuclear energy                        14.64457445
 Kinetic energy                        40.78486997
 One electron energy                  -81.82773347
 Two electron energy                   26.85272558
 Virial quotient                       -0.98885772
 Correlation energy                    -0.14522787
 !RSPT2 STATE 1.1 Energy              -40.330433450326

 !RSPT2 STATE 1.1 Dipole moment         0.00287801     0.00498486     0.00181702
 Dipole moment /Debye                   0.00731470     0.01266943     0.00461811


 **********************************************************************************************************************************
 DATASETS  * FILE   NREC   LENGTH (MB)   RECORD NAMES
              1      20        3.74       500      610      700      900      950      970     1000      129      960     1100   
                                          VAR    BASINP    GEOM    SYMINP    ZMAT    AOBASIS   BASIS     P2S    ABASIS      S 
                                         1400     1410     1200     1210     1080     1600     1650     1300     1700     1380   
                                           T        V       H0       H01     AOSYM     SMH    MOLCAS    ERIS     OPER     JKOP   

              2       4        0.39       700     1000     2100     2140   
                                         GEOM     BASIS     RHF     MCSCF   

 PROGRAMS   *        TOTAL       RS2    CASSCF        HF       INT
 CPU TIMES  *         0.04      0.01      0.01      0.01      0.01
 REAL TIME  *         0.24 SEC
 DISK USED  *         8.86 MB      
 **********************************************************************************************************************************
 SETTING ECAS(1)        =       -40.33043345  AU                              

 DO I                   =         2.00000000   
 SETTING R              =         1.10000000                                  
 SETTING BASIS          =    CC-PVDZ


 Recomputing integrals since geometry changed

1PROGRAM * SEWARD (Integral evaluation for generally contracted gaussian basis sets)     Author: Roland Lindh, 1990

 Geometry written to block  1 of record 700

 Orientation using atomic masses  
 Molecule type: Symmetric top,     Order of principal axis = 3
 Rotational constants:     155.3643087    155.3643087    155.4471547 GHz  (calculated with average atomic masses)

 Point group  C1  



 ATOMIC COORDINATES

 NR  ATOM    CHARGE       X              Y              Z

   1  C1      6.00   -0.000000000    0.000000000    0.000185529
   2  H2      1.00   -0.000000000    0.000000000    2.078884274
   3  H3      1.00    1.959467684    0.000000000   -0.693698370
   4  H4      1.00   -0.979733842   -1.696948792   -0.693698370
   5  H5      1.00   -0.979733842    1.696948792   -0.693698370

 Bond lengths in Bohr (Angstrom)

 1-2  2.078698745  1-3  2.078698745  1-4  2.078698745  1-5  2.078698745
     ( 1.100000000)     ( 1.100000000)     ( 1.100000000)     ( 1.100000000)

 Bond angles

  2-1-3  109.50000000   2-1-4  109.50000000   2-1-5  109.50000000   3-1-4  109.44242594

  3-1-5  109.44242594   4-1-5  109.44242594

 NUCLEAR CHARGE:                   10
 NUMBER OF PRIMITIVE AOS:          55
 NUMBER OF SYMMETRY AOS:           54
 NUMBER OF CONTRACTIONS:           34   (  34A   )
 NUMBER OF CORE ORBITALS:           1   (   1A   )
 NUMBER OF VALENCE ORBITALS:        8   (   8A   )


 NUCLEAR REPULSION ENERGY   13.31324950


 Eigenvalues of metric

         1 0.124E-01 0.383E-01 0.383E-01 0.383E-01 0.537E-01 0.584E-01 0.584E-01 0.584E-01


 Contracted 2-electron integrals neglected if value below      1.0D-11
 AO integral compression algorithm  1   Integral accuracy      1.0D-11

     1.049 MB (compressed) written to integral file ( 64.8%)


 NUMBER OF SORTED TWO-ELECTRON INTEGRALS:     177310.     BUFFER LENGTH:  32768
 NUMBER OF SEGMENTS:   1  SEGMENT LENGTH:     177310      RECORD LENGTH: 524288

 Memory used in sort:       0.73 MW

 SORT1 READ      219389. AND WROTE      146782. INTEGRALS IN      1 RECORDS. CPU TIME:     0.00 SEC, REAL TIME:     0.00 SEC
 SORT2 READ      146782. AND WROTE      177310. INTEGRALS IN      4 RECORDS. CPU TIME:     0.01 SEC, REAL TIME:     0.00 SEC

 FILE SIZES:   FILE 1:     3.7 MBYTE,  FILE 4:     4.2 MBYTE,   TOTAL:      7.9 MBYTE

 OPERATOR DM      FOR CENTER  0  COORDINATES:    0.000000    0.000000    0.000000


 **********************************************************************************************************************************
 DATASETS  * FILE   NREC   LENGTH (MB)   RECORD NAMES
              1      19        3.40       500      610      700      900      950      970     1000      129      960     1100   
                                          VAR    BASINP    GEOM    SYMINP    ZMAT    AOBASIS   BASIS     P2S    ABASIS      S 
                                         1400     1410     1200     1210     1080     1600     1650     1300     1700   
                                           T        V       H0       H01     AOSYM     SMH    MOLCAS    ERIS     OPER   

              2       4        0.39       700     1000     2100     2140   
                                         GEOM     BASIS     RHF     MCSCF   

 PROGRAMS   *        TOTAL       INT       RS2    CASSCF        HF       INT
 CPU TIMES  *         0.06      0.02      0.01      0.01      0.01      0.01
 REAL TIME  *         0.31 SEC
 DISK USED  *         8.86 MB      
 **********************************************************************************************************************************

1PROGRAM * RHF-SCF (CLOSED SHELL)       Authors: W. Meyer, H.-J. Werner


 NUMBER OF ELECTRONS:       5+    5-    SPACE SYMMETRY=1    SPIN SYMMETRY: Singlet 
 CONVERGENCE THRESHOLDS:    1.00E-05 (Density)    1.00E-07 (Energy)
 MAX. NUMBER OF ITERATIONS:       60
 INTERPOLATION TYPE:            DIIS
 INTERPOLATION STEPS:              2 (START)      1 (STEP)
 LEVEL SHIFTS:                  0.00 (CLOSED)  0.00 (OPEN) 



 Molecular orbitals read from record     2100.2  Type=RHF/CANONICAL (state 1.1)

 Molecular orbital dump at record        2100.2

 ITERATION    DDIFF          GRAD             ENERGY        2-EL.EN.            DIPOLE MOMENTS         DIIS
    1      0.000D+00      0.000D+00       -40.19161709     52.363372   -0.00000   -0.00000   -0.00017    0
    2      0.000D+00      0.590D-02       -40.19804266     51.767967   -0.00000    0.00000   -0.00015    1
    3      0.165D-01      0.163D-02       -40.19843646     51.971993   -0.00000    0.00000   -0.00018    2
    4      0.356D-02      0.515D-03       -40.19848346     51.907376   -0.00000    0.00000   -0.00017    3
    5      0.998D-03      0.435D-04       -40.19848402     51.907887   -0.00000    0.00000   -0.00017    4
    6      0.105D-03      0.372D-05       -40.19848402     51.907923   -0.00000    0.00000   -0.00017    5
    7      0.955D-05      0.568D-06       -40.19848402     51.907910   -0.00000    0.00000   -0.00017    0

 Final occupancy:   5

 !RHF STATE 1.1 Energy                -40.198484024242
 Nuclear energy                        13.31324950
 One-electron energy                  -79.46568861
 Two-electron energy                   25.95395509
 Virial quotient                       -1.00375962
 !RHF STATE 1.1 Dipole moment          -0.00000000     0.00000000    -0.00016889
 Dipole moment /Debye                  -0.00000000     0.00000000    -0.00042925

 Orbital energies:

         1.1          2.1          3.1          4.1          5.1          6.1          7.1
    -11.220814    -0.937887    -0.540174    -0.540007    -0.540007     0.191748     0.272444


 **********************************************************************************************************************************
 DATASETS  * FILE   NREC   LENGTH (MB)   RECORD NAMES
              1      19        3.40       500      610      700      900      950      970     1000      129      960     1100   
                                          VAR    BASINP    GEOM    SYMINP    ZMAT    AOBASIS   BASIS     P2S    ABASIS      S 
                                         1400     1410     1200     1210     1080     1600     1650     1300     1700   
                                           T        V       H0       H01     AOSYM     SMH    MOLCAS    ERIS     OPER   

              2       4        0.39       700     1000     2100     2140   
                                         GEOM     BASIS     RHF     MCSCF   

 PROGRAMS   *        TOTAL        HF       INT       RS2    CASSCF        HF       INT
 CPU TIMES  *         0.07      0.01      0.02      0.01      0.01      0.01      0.01
 REAL TIME  *         0.32 SEC
 DISK USED  *         8.86 MB      
 **********************************************************************************************************************************

1PROGRAM * MULTI (Direct Multiconfiguration SCF)       Authors: P.J. Knowles, H.-J. Werner (1984)     S.T. Elbert (1988)


 Number of closed-shell orbitals:  4 (  4 )
 Number of active  orbitals:       2 (  2 )
 Number of external orbitals:     28 ( 28 )

 State symmetry 1

 Number of electrons:     2    Spin symmetry=Singlet   Space symmetry=1
 Number of states:        1
 Number of CSFs:          3   (4 determinants, 4 intermediate states)

 Molecular orbitals read from record     2140.2  Type=MCSCF/NATURAL (state 1.1)

 Wavefunction dump at record             2140.2

 Convergence thresholds  0.10E-01 (gradient)  0.10E-05 (energy)  0.10E-02 (step length)

 Number of orbital rotations:     176     (   8 Core/Active  112 Core/Virtual   0 Active/Active   56 Active/Virtual)
 Total number of variables:       180


 ITER. MIC  NCI  NEG     ENERGY(VAR)     ENERGY(PROJ)   ENERGY CHANGE     GRAD(0)  GRAD(ORB)   GRAD(CI)     STEP       TIME

   1   31    7    0     -40.20739446     -40.21402752   -0.00663306    0.14179862 0.00000275 0.00000000  0.54D-01      0.01
   2   22    8    0     -40.21408492     -40.21408660   -0.00000168    0.00197284 0.00000007 0.00000000  0.30D-02      0.01
   3   19    4    0     -40.21408660     -40.21408660   -0.00000000    0.00000081 0.00000000 0.00000000  0.86D-06      0.02

 ** WVFN ****  CONVERGENCE REACHED, FINAL GRADIENT:  0.41D-07


 First order charge density matrix for state 1.1 saved on record  2140.2 (density set 1)

 Results for state 1.1
 =====================

 !MCSCF STATE 1.1 Energy              -40.214086600413
 Nuclear energy                        13.31324950
 Kinetic energy                        40.08808002
 One electron energy                  -79.46323330
 Two electron energy                   25.93589720
 Virial ratio                           2.00314324

 !MCSCF STATE 1.1 Dipole moment         0.00253878     0.00439729     0.00163578
 Dipole moment /Debye                   0.00645251     0.01117607     0.00415748


 Natural orbital dump at molpro section                    2140.2    (Orbital set 2)



 **********************************************************************************************************************************
 DATASETS  * FILE   NREC   LENGTH (MB)   RECORD NAMES
              1      20        3.72       500      610      700      900      950      970     1000      129      960     1100   
                                          VAR    BASINP    GEOM    SYMINP    ZMAT    AOBASIS   BASIS     P2S    ABASIS      S 
                                         1400     1410     1200     1210     1080     1600     1650     1300     1700     1380   
                                           T        V       H0       H01     AOSYM     SMH    MOLCAS    ERIS     OPER     JKOP   

              2       4        0.39       700     1000     2100     2140   
                                         GEOM     BASIS     RHF     MCSCF   

 PROGRAMS   *        TOTAL    CASSCF        HF       INT       RS2    CASSCF        HF       INT
 CPU TIMES  *         0.10      0.03      0.01      0.02      0.01      0.01      0.01      0.01
 REAL TIME  *         0.35 SEC
 DISK USED  *         8.86 MB      
 **********************************************************************************************************************************

1PROGRAM * RS2 (Multireference RS Perturbation Theory)     Authors: H.-J. Werner (1993), P. Celani (1998)


 Level shift= 0.20

 Convergence thresholds:  THRVAR = 1.00D-08  THRDEN = 1.00D-06

 Number of optimized states:  1  Roots:   1
 Number of reference states:  1  Roots:   1

 Reference symmetry:                   1   Singlet 
 Number of electrons:                 10
 Maximum number of shells:             4
 Maximum number of spin couplings:     5

 Reference space:        3 conf        3 CSFs
 N elec internal:       15 conf       15 CSFs
 N-1 el internal:       23 conf       32 CSFs
 N-2 el internal:       25 conf       52 CSFs

 Number of electrons in valence space:                      8
 Maximum number of open shell orbitals in reference space:  2
 Maximum number of open shell orbitals in internal spaces:  6


 Number of core orbitals:           1 (   1 )
 Number of closed-shell orbitals:   3 (   3 )
 Number of active  orbitals:        2 (   2 )
 Number of external orbitals:      28 (  28 )

 Molecular orbitals read from record     2140.2  Type=MCSCF/NATURAL (state 1.1)

 Coulomb and exchange operators available. No transformation done.

 Number of p-space configurations:   1

 Reference wavefunction optimized for reference space (refopt=1)

 State     Reference Energy 
   1         -40.21408660

 Number of blocks in overlap matrix:     2   Smallest eigenvalue:  0.10D+01
 Number of N-2 electron functions:      22
 Number of N-1 electron functions:      32

 Number of internal configurations:                   15
 Number of singly external configurations:           896
 Number of doubly external configurations:          8680
 Total number of contracted configurations:         9591
 Total number of uncontracted configurations:      21351

 Weight factors for SA-density in H0:    1.000000

 FIMAX=  0.15D+00  FXMAX=  0.16D-11  DIAG=  F  T  NOREF=1  NOINT=0  IHPPD=2

 Nuclear energy:                      13.31324950
 Core energy:                        -36.20715688
 Zeroth-order valence energy:         -5.07890255
 Zeroth-order total energy:          -27.97280993
 First-order energy:                 -12.24127667

 Using uncontracted singles

 Diagonal Coupling coefficients finished.               Storage:     868 words, CPU-Time:      0.00 seconds.
 Energy denominators for pairs finished in 0 passes.    Storage:    2280 words, CPU-time:      0.00 seconds.

 A level shift of 0.20 is applied.

  ITER. STATE  ROOT     SQ.NORM     CORR.ENERGY   TOTAL ENERGY   ENERGY CHANGE       DEN1      VAR(S)    VAR(P)      TIME
    1     1     1     1.00471477    -0.00094295   -40.21502956    -0.00094295    -0.13805988  0.47D-02  0.38D-01     0.00
    2     1     1     1.04298791    -0.14715085   -40.36123745    -0.14620789    -0.00043613  0.45D-04  0.10D-03     0.00
    3     1     1     1.04343023    -0.14771727   -40.36180387    -0.00056642    -0.00037398  0.40D-05  0.11D-05     0.00
    4     1     1     1.04347762    -0.14774217   -40.36182877    -0.00002491    -0.00000235  0.93D-07  0.10D-06     0.00
    5     1     1     1.04349568    -0.14774636   -40.36183296    -0.00000418    -0.00001173  0.64D-08  0.30D-08     0.00
    6     1     1     1.04349739    -0.14774676   -40.36183336    -0.00000041    -0.00000012  0.30D-09  0.19D-09     0.00
    7     1     1     1.04349813    -0.14774688   -40.36183348    -0.00000012    -0.00000043  0.19D-10  0.11D-10     0.01

 Energies without level shift correction:

    7     1     1     1.04349813    -0.13904725   -40.35313385

 Energy contributions for state 1.1:
 ===================================

            Energy contr.      SQ.Norm of FOWF
 Space I     -0.00026433          0.00010980
 Space S     -0.01471434          0.00507926
 Space P     -0.12406858          0.03830907


 =====================================
 Analysis of CPU times by interactions
 =====================================

       I      S      P

 I   0.0%
 S 100.0%   0.0%
 P   0.0%   0.0%   0.0%

 Initialization:   0.0%
 Other:           -0.0%

 Total CPU:        0.0 seconds
 =====================================



 Reference coefficients greater than 0.0500000
 =============================================
 22220           0.9955152
 22202          -0.0946013



 RESULTS FOR STATE 1.1
 =====================

 Coefficient of reference function:   C(0) = 1.00000000 (fixed)   1.00000000 (relaxed)

 Energy contributions of configuration classes

 CLASS          SQ.NORM        ECORR1        ECORR2
 +++++++++++++++++++++++++++++++++++++++++++++++++++
 Internals    0.00010980   -0.00026431    0.14718507
 Singles      0.00507926   -0.01471429   -0.03126986
 Pairs        0.03830907   -0.12406856   -0.26366208
 Total        1.04349813   -0.13904717   -0.14774688
 +++++++++++++++++++++++++++++++++++++++++++++++++++


 Reference energy                     -40.21408660
 Nuclear energy                        13.31324950
 Kinetic energy                        40.17655595
 One electron energy                  -79.37905374
 Two electron energy                   25.70397076
 Virial quotient                       -1.00461158
 Correlation energy                    -0.14774688
 !RSPT2 STATE 1.1 Energy              -40.361833476860

 !RSPT2 STATE 1.1 Dipole moment         0.00279589     0.00484263     0.00181481
 Dipole moment /Debye                   0.00710598     0.01230792     0.00461250


 **********************************************************************************************************************************
 DATASETS  * FILE   NREC   LENGTH (MB)   RECORD NAMES
              1      20        3.72       500      610      700      900      950      970     1000      129      960     1100   
                                          VAR    BASINP    GEOM    SYMINP    ZMAT    AOBASIS   BASIS     P2S    ABASIS      S 
                                         1400     1410     1200     1210     1080     1600     1650     1300     1700     1380   
                                           T        V       H0       H01     AOSYM     SMH    MOLCAS    ERIS     OPER     JKOP   

              2       4        0.39       700     1000     2100     2140   
                                         GEOM     BASIS     RHF     MCSCF   

 PROGRAMS   *        TOTAL       RS2    CASSCF        HF       INT       RS2    CASSCF        HF       INT
 CPU TIMES  *         0.12      0.02      0.03      0.01      0.02      0.01      0.01      0.01      0.01
 REAL TIME  *         0.37 SEC
 DISK USED  *         8.86 MB      
 **********************************************************************************************************************************
 SETTING ECAS(2)        =       -40.36183348  AU                              

 DO I                   =         3.00000000   
 SETTING R              =         1.20000000                                  
 SETTING BASIS          =    CC-PVDZ


 Recomputing integrals since geometry changed

1PROGRAM * SEWARD (Integral evaluation for generally contracted gaussian basis sets)     Author: Roland Lindh, 1990

 Geometry written to block  1 of record 700

 Orientation using atomic masses  
 Molecule type: Symmetric top,     Order of principal axis = 3
 Rotational constants:     130.5491761    130.5491761    130.6187897 GHz  (calculated with average atomic masses)

 Point group  C1  



 ATOMIC COORDINATES

 NR  ATOM    CHARGE       X              Y              Z

   1  C1      6.00   -0.000000000    0.000000000    0.000202395
   2  H2      1.00   -0.000000000    0.000000000    2.267873753
   3  H3      1.00    2.137601110    0.000000000   -0.756761858
   4  H4      1.00   -1.068800555   -1.851216864   -0.756761858
   5  H5      1.00   -1.068800555    1.851216864   -0.756761858

 Bond lengths in Bohr (Angstrom)

 1-2  2.267671358  1-3  2.267671358  1-4  2.267671358  1-5  2.267671358
     ( 1.200000000)     ( 1.200000000)     ( 1.200000000)     ( 1.200000000)

 Bond angles

  2-1-3  109.50000000   2-1-4  109.50000000   2-1-5  109.50000000   3-1-4  109.44242594

  3-1-5  109.44242594   4-1-5  109.44242594

 NUCLEAR CHARGE:                   10
 NUMBER OF PRIMITIVE AOS:          55
 NUMBER OF SYMMETRY AOS:           54
 NUMBER OF CONTRACTIONS:           34   (  34A   )
 NUMBER OF CORE ORBITALS:           1   (   1A   )
 NUMBER OF VALENCE ORBITALS:        8   (   8A   )


 NUCLEAR REPULSION ENERGY   12.20381204


 Eigenvalues of metric

         1 0.138E-01 0.500E-01 0.500E-01 0.500E-01 0.697E-01 0.697E-01 0.697E-01 0.809E-01


 Contracted 2-electron integrals neglected if value below      1.0D-11
 AO integral compression algorithm  1   Integral accuracy      1.0D-11

     1.049 MB (compressed) written to integral file ( 62.7%)


 NUMBER OF SORTED TWO-ELECTRON INTEGRALS:     177310.     BUFFER LENGTH:  32768
 NUMBER OF SEGMENTS:   1  SEGMENT LENGTH:     177310      RECORD LENGTH: 524288

 Memory used in sort:       0.73 MW

 SORT1 READ      219389. AND WROTE      146782. INTEGRALS IN      1 RECORDS. CPU TIME:     0.00 SEC, REAL TIME:     0.01 SEC
 SORT2 READ      146782. AND WROTE      177310. INTEGRALS IN      4 RECORDS. CPU TIME:     0.01 SEC, REAL TIME:     0.01 SEC

 FILE SIZES:   FILE 1:     3.7 MBYTE,  FILE 4:     4.2 MBYTE,   TOTAL:      7.9 MBYTE

 OPERATOR DM      FOR CENTER  0  COORDINATES:    0.000000    0.000000    0.000000


 **********************************************************************************************************************************
 DATASETS  * FILE   NREC   LENGTH (MB)   RECORD NAMES
              1      19        3.39       500      610      700      900      950      970     1000      129      960     1100   
                                          VAR    BASINP    GEOM    SYMINP    ZMAT    AOBASIS   BASIS     P2S    ABASIS      S 
                                         1400     1410     1200     1210     1080     1600     1650     1300     1700   
                                           T        V       H0       H01     AOSYM     SMH    MOLCAS    ERIS     OPER   

              2       4        0.39       700     1000     2100     2140   
                                         GEOM     BASIS     RHF     MCSCF   

 PROGRAMS   *        TOTAL       INT       RS2    CASSCF        HF       INT       RS2    CASSCF        HF       INT
 CPU TIMES  *         0.19      0.07      0.02      0.03      0.01      0.02      0.01      0.01      0.01      0.01
 REAL TIME  *         0.44 SEC
 DISK USED  *         8.86 MB      
 **********************************************************************************************************************************

1PROGRAM * RHF-SCF (CLOSED SHELL)       Authors: W. Meyer, H.-J. Werner


 NUMBER OF ELECTRONS:       5+    5-    SPACE SYMMETRY=1    SPIN SYMMETRY: Singlet 
 CONVERGENCE THRESHOLDS:    1.00E-05 (Density)    1.00E-07 (Energy)
 MAX. NUMBER OF ITERATIONS:       60
 INTERPOLATION TYPE:            DIIS
 INTERPOLATION STEPS:              2 (START)      1 (STEP)
 LEVEL SHIFTS:                  0.00 (CLOSED)  0.00 (OPEN) 



 Molecular orbitals read from record     2100.2  Type=RHF/CANONICAL (state 1.1)

 Molecular orbital dump at record        2100.2

 ITERATION    DDIFF          GRAD             ENERGY        2-EL.EN.            DIPOLE MOMENTS         DIIS
    1      0.000D+00      0.000D+00       -40.16649226     50.294245   -0.00000    0.00000   -0.00011    0
    2      0.000D+00      0.505D-02       -40.17144578     49.766463    0.00000    0.00000   -0.00009    1
    3      0.142D-01      0.145D-02       -40.17177435     49.966699    0.00000   -0.00000   -0.00012    2
    4      0.314D-02      0.511D-03       -40.17182264     49.898774    0.00000   -0.00000   -0.00011    3
    5      0.971D-03      0.410D-04       -40.17182313     49.899513    0.00000    0.00000   -0.00011    4
    6      0.108D-03      0.272D-05       -40.17182313     49.899544    0.00000    0.00000   -0.00011    5
    7      0.644D-05      0.199D-06       -40.17182313     49.899541    0.00000    0.00000   -0.00011    0

 Final occupancy:   5

 !RHF STATE 1.1 Energy                -40.171823134969
 Nuclear energy                        12.20381204
 One-electron energy                  -77.32540555
 Two-electron energy                   24.94977037
 Virial quotient                       -1.01527892
 !RHF STATE 1.1 Dipole moment           0.00000000     0.00000000    -0.00011020
 Dipole moment /Debye                   0.00000000     0.00000000    -0.00028007

 Orbital energies:

         1.1          2.1          3.1          4.1          5.1          6.1          7.1
    -11.264990    -0.899607    -0.516213    -0.516061    -0.516061     0.175813     0.254976


 **********************************************************************************************************************************
 DATASETS  * FILE   NREC   LENGTH (MB)   RECORD NAMES
              1      19        3.39       500      610      700      900      950      970     1000      129      960     1100   
                                          VAR    BASINP    GEOM    SYMINP    ZMAT    AOBASIS   BASIS     P2S    ABASIS      S 
                                         1400     1410     1200     1210     1080     1600     1650     1300     1700   
                                           T        V       H0       H01     AOSYM     SMH    MOLCAS    ERIS     OPER   

              2       4        0.39       700     1000     2100     2140   
                                         GEOM     BASIS     RHF     MCSCF   

 PROGRAMS   *        TOTAL        HF       INT       RS2    CASSCF        HF       INT       RS2    CASSCF        HF       INT
 CPU TIMES  *         0.19      0.00      0.07      0.02      0.03      0.01      0.02      0.01      0.01      0.01      0.01
 REAL TIME  *         0.45 SEC
 DISK USED  *         8.86 MB      
 **********************************************************************************************************************************

1PROGRAM * MULTI (Direct Multiconfiguration SCF)       Authors: P.J. Knowles, H.-J. Werner (1984)     S.T. Elbert (1988)


 Number of closed-shell orbitals:  4 (  4 )
 Number of active  orbitals:       2 (  2 )
 Number of external orbitals:     28 ( 28 )

 State symmetry 1

 Number of electrons:     2    Spin symmetry=Singlet   Space symmetry=1
 Number of states:        1
 Number of CSFs:          3   (4 determinants, 4 intermediate states)

 Molecular orbitals read from record     2140.2  Type=MCSCF/NATURAL (state 1.1)

 Wavefunction dump at record             2140.2

 Convergence thresholds  0.10E-01 (gradient)  0.10E-05 (energy)  0.10E-02 (step length)

 Number of orbital rotations:     176     (   8 Core/Active  112 Core/Virtual   0 Active/Active   56 Active/Virtual)
 Total number of variables:       180


 ITER. MIC  NCI  NEG     ENERGY(VAR)     ENERGY(PROJ)   ENERGY CHANGE     GRAD(0)  GRAD(ORB)   GRAD(CI)     STEP       TIME

   1   26    7    0     -40.18509454     -40.19021048   -0.00511594    0.12085328 0.00000306 0.00000000  0.50D-01      0.01
   2   21    8    0     -40.19025062     -40.19025172   -0.00000110    0.00151801 0.00000006 0.00000000  0.23D-02      0.01
   3   19    4    0     -40.19025172     -40.19025172   -0.00000000    0.00000058 0.00000000 0.00000000  0.61D-06      0.02

 ** WVFN ****  CONVERGENCE REACHED, FINAL GRADIENT:  0.44D-07


 First order charge density matrix for state 1.1 saved on record  2140.2 (density set 1)

 Results for state 1.1
 =====================

 !MCSCF STATE 1.1 Energy              -40.190251721930
 Nuclear energy                        12.20381204
 Kinetic energy                        39.61798057
 One electron energy                  -77.32334800
 Two electron energy                   24.92928423
 Virial ratio                           2.01444473

 !MCSCF STATE 1.1 Dipole moment         0.00194427     0.00336758     0.00127489
 Dipole moment /Debye                   0.00494152     0.00855897     0.00324024


 Natural orbital dump at molpro section                    2140.2    (Orbital set 2)



 **********************************************************************************************************************************
 DATASETS  * FILE   NREC   LENGTH (MB)   RECORD NAMES
              1      20        3.70       500      610      700      900      950      970     1000      129      960     1100   
                                          VAR    BASINP    GEOM    SYMINP    ZMAT    AOBASIS   BASIS     P2S    ABASIS      S 
                                         1400     1410     1200     1210     1080     1600     1650     1300     1700     1380   
                                           T        V       H0       H01     AOSYM     SMH    MOLCAS    ERIS     OPER     JKOP   

              2       4        0.39       700     1000     2100     2140   
                                         GEOM     BASIS     RHF     MCSCF   

 PROGRAMS   *        TOTAL    CASSCF        HF       INT       RS2    CASSCF        HF       INT       RS2    CASSCF        HF
 CPU TIMES  *         0.23      0.04      0.00      0.07      0.02      0.03      0.01      0.02      0.01      0.01      0.01
 REAL TIME  *         0.48 SEC
 DISK USED  *         8.86 MB      
 **********************************************************************************************************************************

1PROGRAM * RS2 (Multireference RS Perturbation Theory)     Authors: H.-J. Werner (1993), P. Celani (1998)


 Level shift= 0.20

 Convergence thresholds:  THRVAR = 1.00D-08  THRDEN = 1.00D-06

 Number of optimized states:  1  Roots:   1
 Number of reference states:  1  Roots:   1

 Reference symmetry:                   1   Singlet 
 Number of electrons:                 10
 Maximum number of shells:             4
 Maximum number of spin couplings:     5

 Reference space:        3 conf        3 CSFs
 N elec internal:       15 conf       15 CSFs
 N-1 el internal:       23 conf       32 CSFs
 N-2 el internal:       25 conf       52 CSFs

 Number of electrons in valence space:                      8
 Maximum number of open shell orbitals in reference space:  2
 Maximum number of open shell orbitals in internal spaces:  6


 Number of core orbitals:           1 (   1 )
 Number of closed-shell orbitals:   3 (   3 )
 Number of active  orbitals:        2 (   2 )
 Number of external orbitals:      28 (  28 )

 Molecular orbitals read from record     2140.2  Type=MCSCF/NATURAL (state 1.1)

 Coulomb and exchange operators available. No transformation done.

 Number of p-space configurations:   1

 Reference wavefunction optimized for reference space (refopt=1)

 State     Reference Energy 
   1         -40.19025172

 Number of blocks in overlap matrix:     2   Smallest eigenvalue:  0.10D+01
 Number of N-2 electron functions:      22
 Number of N-1 electron functions:      32

 Number of internal configurations:                   15
 Number of singly external configurations:           896
 Number of doubly external configurations:          8680
 Total number of contracted configurations:         9591
 Total number of uncontracted configurations:      21351

 Weight factors for SA-density in H0:    1.000000

 FIMAX=  0.14D+00  FXMAX=  0.90D-12  DIAG=  F  T  NOREF=1  NOINT=0  IHPPD=2

 Nuclear energy:                      12.20381204
 Core energy:                        -35.88665474
 Zeroth-order valence energy:         -4.84970550
 Zeroth-order total energy:          -28.53254820
 First-order energy:                 -11.65770352

 Using uncontracted singles

 Diagonal Coupling coefficients finished.               Storage:     868 words, CPU-Time:      0.00 seconds.
 Energy denominators for pairs finished in 0 passes.    Storage:    2280 words, CPU-time:      0.00 seconds.

 A level shift of 0.20 is applied.

  ITER. STATE  ROOT     SQ.NORM     CORR.ENERGY   TOTAL ENERGY   ENERGY CHANGE       DEN1      VAR(S)    VAR(P)      TIME
    1     1     1     1.00538207    -0.00107641   -40.19132814    -0.00107641    -0.14004589  0.54D-02  0.41D-01     0.00
    2     1     1     1.04686793    -0.14974495   -40.33999667    -0.14866854    -0.00030702  0.44D-04  0.10D-03     0.00
    3     1     1     1.04727802    -0.15026796   -40.34051969    -0.00052301    -0.00036016  0.39D-05  0.99D-06     0.00
    4     1     1     1.04731307    -0.15028824   -40.34053996    -0.00002028     0.00000260  0.86D-07  0.90D-07     0.00
    5     1     1     1.04732905    -0.15029190   -40.34054362    -0.00000366    -0.00001066  0.56D-08  0.25D-08     0.00
    6     1     1     1.04733014    -0.15029217   -40.34054389    -0.00000027     0.00000008  0.25D-09  0.15D-09     0.00
    7     1     1     1.04733076    -0.15029227   -40.34054399    -0.00000010    -0.00000038  0.14D-10  0.81D-11     0.01

 Energies without level shift correction:

    7     1     1     1.04733076    -0.14082611   -40.33107784

 Energy contributions for state 1.1:
 ===================================

            Energy contr.      SQ.Norm of FOWF
 Space I     -0.00026680          0.00012078
 Space S     -0.01514303          0.00566335
 Space P     -0.12541628          0.04154663


 =====================================
 Analysis of CPU times by interactions
 =====================================

       I      S      P

 I   0.0%
 S   0.0%   0.0%
 P   0.0%   0.0%   0.0%

 Initialization:   0.0%
 Other:          100.0%

 Total CPU:        0.0 seconds
 =====================================



 Reference coefficients greater than 0.0500000
 =============================================
 22220           0.9938084
 22202          -0.1111073



 RESULTS FOR STATE 1.1
 =====================

 Coefficient of reference function:   C(0) = 1.00000000 (fixed)   1.00000000 (relaxed)

 Energy contributions of configuration classes

 CLASS          SQ.NORM        ECORR1        ECORR2
 +++++++++++++++++++++++++++++++++++++++++++++++++++
 Internals    0.00012078   -0.00026678    0.14972276
 Singles      0.00566335   -0.01514300   -0.03232181
 Pairs        0.04154663   -0.12541628   -0.26769321
 Total        1.04733076   -0.14082605   -0.15029227
 +++++++++++++++++++++++++++++++++++++++++++++++++++


 Reference energy                     -40.19025172
 Nuclear energy                        12.20381204
 Kinetic energy                        39.71474201
 One electron energy                  -77.24980200
 Two electron energy                   24.70544597
 Virial quotient                       -1.01575742
 Correlation energy                    -0.15029227
 !RSPT2 STATE 1.1 Energy              -40.340543988225

 !RSPT2 STATE 1.1 Dipole moment         0.00249211     0.00431646     0.00165825
 Dipole moment /Debye                   0.00633390     0.01097063     0.00421458


 **********************************************************************************************************************************
 DATASETS  * FILE   NREC   LENGTH (MB)   RECORD NAMES
              1      20        3.70       500      610      700      900      950      970     1000      129      960     1100   
                                          VAR    BASINP    GEOM    SYMINP    ZMAT    AOBASIS   BASIS     P2S    ABASIS      S 
                                         1400     1410     1200     1210     1080     1600     1650     1300     1700     1380   
                                           T        V       H0       H01     AOSYM     SMH    MOLCAS    ERIS     OPER     JKOP   

              2       4        0.39       700     1000     2100     2140   
                                         GEOM     BASIS     RHF     MCSCF   

 PROGRAMS   *        TOTAL       RS2    CASSCF        HF       INT       RS2    CASSCF        HF       INT       RS2    CASSCF
 CPU TIMES  *         0.24      0.01      0.04      0.00      0.07      0.02      0.03      0.01      0.02      0.01      0.01
 REAL TIME  *         0.50 SEC
 DISK USED  *         8.86 MB      
 **********************************************************************************************************************************
 SETTING ECAS(3)        =       -40.34054399  AU                              

 DO I                   =         4.00000000   
 SETTING R              =         1.30000000                                  
 SETTING BASIS          =    CC-PVDZ


 Recomputing integrals since geometry changed

1PROGRAM * SEWARD (Integral evaluation for generally contracted gaussian basis sets)     Author: Roland Lindh, 1990

 Geometry written to block  1 of record 700

 Orientation using atomic masses  
 Molecule type: Symmetric top,     Order of principal axis = 3
 Rotational constants:     111.2371678    111.2371678    111.2964836 GHz  (calculated with average atomic masses)

 Point group  C1  



 ATOMIC COORDINATES

 NR  ATOM    CHARGE       X              Y              Z

   1  C1      6.00   -0.000000000    0.000000000    0.000219262
   2  H2      1.00   -0.000000000    0.000000000    2.456863233
   3  H3      1.00    2.315734536    0.000000000   -0.819825346
   4  H4      1.00   -1.157867268   -2.005484936   -0.819825346
   5  H5      1.00   -1.157867268    2.005484936   -0.819825346

 Bond lengths in Bohr (Angstrom)

 1-2  2.456643971  1-3  2.456643971  1-4  2.456643971  1-5  2.456643971
     ( 1.300000000)     ( 1.300000000)     ( 1.300000000)     ( 1.300000000)

 Bond angles

  2-1-3  109.50000000   2-1-4  109.50000000   2-1-5  109.50000000   3-1-4  109.44242594

  3-1-5  109.44242594   4-1-5  109.44242594

 NUCLEAR CHARGE:                   10
 NUMBER OF PRIMITIVE AOS:          55
 NUMBER OF SYMMETRY AOS:           54
 NUMBER OF CONTRACTIONS:           34   (  34A   )
 NUMBER OF CORE ORBITALS:           1   (   1A   )
 NUMBER OF VALENCE ORBITALS:        8   (   8A   )


 NUCLEAR REPULSION ENERGY   11.26505727


 Eigenvalues of metric

         1 0.149E-01 0.590E-01 0.590E-01 0.590E-01 0.821E-01 0.822E-01 0.822E-01 0.951E-01


 Contracted 2-electron integrals neglected if value below      1.0D-11
 AO integral compression algorithm  1   Integral accuracy      1.0D-11

     1.049 MB (compressed) written to integral file ( 60.7%)


 NUMBER OF SORTED TWO-ELECTRON INTEGRALS:     177310.     BUFFER LENGTH:  32768
 NUMBER OF SEGMENTS:   1  SEGMENT LENGTH:     177310      RECORD LENGTH: 524288

 Memory used in sort:       0.73 MW

 SORT1 READ      219389. AND WROTE      146782. INTEGRALS IN      1 RECORDS. CPU TIME:     0.00 SEC, REAL TIME:     0.01 SEC
 SORT2 READ      146782. AND WROTE      177310. INTEGRALS IN      4 RECORDS. CPU TIME:     0.01 SEC, REAL TIME:     0.01 SEC

 FILE SIZES:   FILE 1:     3.7 MBYTE,  FILE 4:     4.2 MBYTE,   TOTAL:      7.9 MBYTE

 OPERATOR DM      FOR CENTER  0  COORDINATES:    0.000000    0.000000    0.000000


 **********************************************************************************************************************************
 DATASETS  * FILE   NREC   LENGTH (MB)   RECORD NAMES
              1      19        3.37       500      610      700      900      950      970     1000      129      960     1100   
                                          VAR    BASINP    GEOM    SYMINP    ZMAT    AOBASIS   BASIS     P2S    ABASIS      S 
                                         1400     1410     1200     1210     1080     1600     1650     1300     1700   
                                           T        V       H0       H01     AOSYM     SMH    MOLCAS    ERIS     OPER   

              2       4        0.39       700     1000     2100     2140   
                                         GEOM     BASIS     RHF     MCSCF   

 PROGRAMS   *        TOTAL       INT       RS2    CASSCF        HF       INT       RS2    CASSCF        HF       INT       RS2
 CPU TIMES  *         0.30      0.05      0.01      0.04      0.00      0.07      0.02      0.03      0.01      0.02      0.01
 REAL TIME  *         0.56 SEC
 DISK USED  *         8.86 MB      
 **********************************************************************************************************************************

1PROGRAM * RHF-SCF (CLOSED SHELL)       Authors: W. Meyer, H.-J. Werner


 NUMBER OF ELECTRONS:       5+    5-    SPACE SYMMETRY=1    SPIN SYMMETRY: Singlet 
 CONVERGENCE THRESHOLDS:    1.00E-05 (Density)    1.00E-07 (Energy)
 MAX. NUMBER OF ITERATIONS:       60
 INTERPOLATION TYPE:            DIIS
 INTERPOLATION STEPS:              2 (START)      1 (STEP)
 LEVEL SHIFTS:                  0.00 (CLOSED)  0.00 (OPEN) 



 Molecular orbitals read from record     2100.2  Type=RHF/CANONICAL (state 1.1)

 Molecular orbital dump at record        2100.2

 ITERATION    DDIFF          GRAD             ENERGY        2-EL.EN.            DIPOLE MOMENTS         DIIS
    1      0.000D+00      0.000D+00       -40.11068882     48.499855    0.00000   -0.00000   -0.00006    0
    2      0.000D+00      0.439D-02       -40.11459854     48.015624    0.00000   -0.00000   -0.00002    1
    3      0.125D-01      0.133D-02       -40.11488577     48.218312   -0.00000   -0.00000   -0.00006    2
    4      0.287D-02      0.515D-03       -40.11493722     48.146305   -0.00000   -0.00000   -0.00005    3
    5      0.962D-03      0.411D-04       -40.11493774     48.147269   -0.00000    0.00000   -0.00005    4
    6      0.120D-03      0.319D-05       -40.11493774     48.147316   -0.00000    0.00000   -0.00005    5
    7      0.958D-05      0.325D-06       -40.11493774     48.147336   -0.00000    0.00000   -0.00005    0

 Final occupancy:   5

 !RHF STATE 1.1 Energy                -40.114937741345
 Nuclear energy                        11.26505727
 One-electron energy                  -75.45366278
 Two-electron energy                   24.07366777
 Virial quotient                       -1.02337191
 !RHF STATE 1.1 Dipole moment          -0.00000000     0.00000000    -0.00004533
 Dipole moment /Debye                  -0.00000000     0.00000000    -0.00011522

 Orbital energies:

         1.1          2.1          3.1          4.1          5.1          6.1          7.1
    -11.304735    -0.866569    -0.494045    -0.493907    -0.493907     0.153786     0.234772


 **********************************************************************************************************************************
 DATASETS  * FILE   NREC   LENGTH (MB)   RECORD NAMES
              1      19        3.37       500      610      700      900      950      970     1000      129      960     1100   
                                          VAR    BASINP    GEOM    SYMINP    ZMAT    AOBASIS   BASIS     P2S    ABASIS      S 
                                         1400     1410     1200     1210     1080     1600     1650     1300     1700   
                                           T        V       H0       H01     AOSYM     SMH    MOLCAS    ERIS     OPER   

              2       4        0.39       700     1000     2100     2140   
                                         GEOM     BASIS     RHF     MCSCF   

 PROGRAMS   *        TOTAL        HF       INT       RS2    CASSCF        HF       INT       RS2    CASSCF        HF       INT
 CPU TIMES  *         0.31      0.01      0.05      0.01      0.04      0.00      0.07      0.02      0.03      0.01      0.02
 REAL TIME  *         0.57 SEC
 DISK USED  *         8.86 MB      
 **********************************************************************************************************************************

1PROGRAM * MULTI (Direct Multiconfiguration SCF)       Authors: P.J. Knowles, H.-J. Werner (1984)     S.T. Elbert (1988)


 Number of closed-shell orbitals:  4 (  4 )
 Number of active  orbitals:       2 (  2 )
 Number of external orbitals:     28 ( 28 )

 State symmetry 1

 Number of electrons:     2    Spin symmetry=Singlet   Space symmetry=1
 Number of states:        1
 Number of CSFs:          3   (4 determinants, 4 intermediate states)

 Molecular orbitals read from record     2140.2  Type=MCSCF/NATURAL (state 1.1)

 Wavefunction dump at record             2140.2

 Convergence thresholds  0.10E-01 (gradient)  0.10E-05 (energy)  0.10E-02 (step length)

 Number of orbital rotations:     176     (   8 Core/Active  112 Core/Virtual   0 Active/Active   56 Active/Virtual)
 Total number of variables:       180


 ITER. MIC  NCI  NEG     ENERGY(VAR)     ENERGY(PROJ)   ENERGY CHANGE     GRAD(0)  GRAD(ORB)   GRAD(CI)     STEP       TIME

   1   23    7    0     -40.13249486     -40.13653728   -0.00404242    0.10431110 0.00000352 0.00000000  0.47D-01      0.01
   2   21    8    0     -40.13656682     -40.13656759   -0.00000077    0.00121898 0.00000006 0.00000000  0.18D-02      0.02
   3   19    4    0     -40.13656759     -40.13656759   -0.00000000    0.00000046 0.00000000 0.00000000  0.62D-06      0.02

 ** WVFN ****  CONVERGENCE REACHED, FINAL GRADIENT:  0.49D-07


 First order charge density matrix for state 1.1 saved on record  2140.2 (density set 1)

 Results for state 1.1
 =====================

 !MCSCF STATE 1.1 Energy              -40.136567592745
 Nuclear energy                        11.26505727
 Kinetic energy                        39.26136415
 One electron energy                  -75.45176456
 Two electron energy                   24.05013970
 Virial ratio                           2.02229172

 !MCSCF STATE 1.1 Dipole moment         0.00103469     0.00179213     0.00069676
 Dipole moment /Debye                   0.00262974     0.00455485     0.00177087


 Natural orbital dump at molpro section                    2140.2    (Orbital set 2)



 **********************************************************************************************************************************
 DATASETS  * FILE   NREC   LENGTH (MB)   RECORD NAMES
              1      20        3.69       500      610      700      900      950      970     1000      129      960     1100   
                                          VAR    BASINP    GEOM    SYMINP    ZMAT    AOBASIS   BASIS     P2S    ABASIS      S 
                                         1400     1410     1200     1210     1080     1600     1650     1300     1700     1380   
                                           T        V       H0       H01     AOSYM     SMH    MOLCAS    ERIS     OPER     JKOP   

              2       4        0.39       700     1000     2100     2140   
                                         GEOM     BASIS     RHF     MCSCF   

 PROGRAMS   *        TOTAL    CASSCF        HF       INT       RS2    CASSCF        HF       INT       RS2    CASSCF        HF
 CPU TIMES  *         0.34      0.03      0.01      0.05      0.01      0.04      0.00      0.07      0.02      0.03      0.01
 REAL TIME  *         0.60 SEC
 DISK USED  *         8.86 MB      
 **********************************************************************************************************************************

1PROGRAM * RS2 (Multireference RS Perturbation Theory)     Authors: H.-J. Werner (1993), P. Celani (1998)


 Level shift= 0.20

 Convergence thresholds:  THRVAR = 1.00D-08  THRDEN = 1.00D-06

 Number of optimized states:  1  Roots:   1
 Number of reference states:  1  Roots:   1

 Reference symmetry:                   1   Singlet 
 Number of electrons:                 10
 Maximum number of shells:             4
 Maximum number of spin couplings:     5

 Reference space:        3 conf        3 CSFs
 N elec internal:       15 conf       15 CSFs
 N-1 el internal:       23 conf       32 CSFs
 N-2 el internal:       25 conf       52 CSFs

 Number of electrons in valence space:                      8
 Maximum number of open shell orbitals in reference space:  2
 Maximum number of open shell orbitals in internal spaces:  6


 Number of core orbitals:           1 (   1 )
 Number of closed-shell orbitals:   3 (   3 )
 Number of active  orbitals:        2 (   2 )
 Number of external orbitals:      28 (  28 )

 Molecular orbitals read from record     2140.2  Type=MCSCF/NATURAL (state 1.1)

 Coulomb and exchange operators available. No transformation done.

 Number of p-space configurations:   1

 Reference wavefunction optimized for reference space (refopt=1)

 State     Reference Energy 
   1         -40.13656759

 Number of blocks in overlap matrix:     2   Smallest eigenvalue:  0.10D+01
 Number of N-2 electron functions:      22
 Number of N-1 electron functions:      32

 Number of internal configurations:                   15
 Number of singly external configurations:           896
 Number of doubly external configurations:          8680
 Total number of contracted configurations:         9591
 Total number of uncontracted configurations:      21351

 Weight factors for SA-density in H0:    1.000000

 FIMAX=  0.13D+00  FXMAX=  0.10D-11  DIAG=  F  T  NOREF=1  NOINT=0  IHPPD=2

 Nuclear energy:                      11.26505727
 Core energy:                        -35.61544066
 Zeroth-order valence energy:         -4.64020356
 Zeroth-order total energy:          -28.99058695
 First-order energy:                 -11.14598064

 Using uncontracted singles

 Diagonal Coupling coefficients finished.               Storage:     868 words, CPU-Time:      0.00 seconds.
 Energy denominators for pairs finished in 0 passes.    Storage:    2280 words, CPU-time:      0.00 seconds.

 A level shift of 0.20 is applied.

  ITER. STATE  ROOT     SQ.NORM     CORR.ENERGY   TOTAL ENERGY   ENERGY CHANGE       DEN1      VAR(S)    VAR(P)      TIME
    1     1     1     1.00616054    -0.00123211   -40.13779970    -0.00123211    -0.14220268  0.62D-02  0.45D-01     0.01
    2     1     1     1.05125169    -0.15262224   -40.28918984    -0.15139014    -0.00017772  0.45D-04  0.11D-03     0.01
    3     1     1     1.05163329    -0.15311358   -40.28968117    -0.00049133    -0.00035037  0.40D-05  0.92D-06     0.01
    4     1     1     1.05165883    -0.15313039   -40.28969799    -0.00001682     0.00000726  0.82D-07  0.81D-07     0.01
    5     1     1     1.05167328    -0.15313367   -40.28970126    -0.00000327    -0.00000987  0.51D-08  0.21D-08     0.01
    6     1     1     1.05167387    -0.15313382   -40.28970141    -0.00000016     0.00000025  0.21D-09  0.12D-09     0.01
    7     1     1     1.05167441    -0.15313391   -40.28970150    -0.00000009    -0.00000033  0.11D-10  0.58D-11     0.01

 Energies without level shift correction:

    7     1     1     1.05167441    -0.14279903   -40.27936662

 Energy contributions for state 1.1:
 ===================================

            Energy contr.      SQ.Norm of FOWF
 Space I     -0.00028182          0.00013840
 Space S     -0.01566852          0.00634460
 Space P     -0.12684868          0.04519142


 =====================================
 Analysis of CPU times by interactions
 =====================================

       I      S      P

 I   0.0%
 S   0.0%   0.0%
 P   0.0%   0.0%   0.0%

 Initialization: 100.0%
 Other:            0.0%

 Total CPU:        0.0 seconds
 =====================================



 Reference coefficients greater than 0.0500000
 =============================================
 22220           0.9915028
 22202          -0.1300857



 RESULTS FOR STATE 1.1
 =====================

 Coefficient of reference function:   C(0) = 1.00000000 (fixed)   1.00000000 (relaxed)

 Energy contributions of configuration classes

 CLASS          SQ.NORM        ECORR1        ECORR2
 +++++++++++++++++++++++++++++++++++++++++++++++++++
 Internals    0.00013840   -0.00028180    0.15252945
 Singles      0.00634460   -0.01566850   -0.03360500
 Pairs        0.04519142   -0.12684868   -0.27205836
 Total        1.05167441   -0.14279899   -0.15313391
 +++++++++++++++++++++++++++++++++++++++++++++++++++


 Reference energy                     -40.13656759
 Nuclear energy                        11.26505727
 Kinetic energy                        39.36650295
 One electron energy                  -75.38913523
 Two electron energy                   23.83437646
 Virial quotient                       -1.02345137
 Correlation energy                    -0.15313391
 !RSPT2 STATE 1.1 Energy              -40.289701503162

 !RSPT2 STATE 1.1 Dipole moment         0.00198074     0.00343074     0.00135971
 Dipole moment /Debye                   0.00503420     0.00871950     0.00345582


 **********************************************************************************************************************************
 DATASETS  * FILE   NREC   LENGTH (MB)   RECORD NAMES
              1      20        3.69       500      610      700      900      950      970     1000      129      960     1100   
                                          VAR    BASINP    GEOM    SYMINP    ZMAT    AOBASIS   BASIS     P2S    ABASIS      S 
                                         1400     1410     1200     1210     1080     1600     1650     1300     1700     1380   
                                           T        V       H0       H01     AOSYM     SMH    MOLCAS    ERIS     OPER     JKOP   

              2       4        0.39       700     1000     2100     2140   
                                         GEOM     BASIS     RHF     MCSCF   

 PROGRAMS   *        TOTAL       RS2    CASSCF        HF       INT       RS2    CASSCF        HF       INT       RS2    CASSCF
 CPU TIMES  *         0.36      0.02      0.03      0.01      0.05      0.01      0.04      0.00      0.07      0.02      0.03
 REAL TIME  *         0.62 SEC
 DISK USED  *         8.86 MB      
 **********************************************************************************************************************************
 SETTING ECAS(4)        =       -40.28970150  AU                              

 DO I                   =         5.00000000   
 SETTING R              =         1.40000000                                  
 SETTING BASIS          =    CC-PVDZ


 Recomputing integrals since geometry changed

1PROGRAM * SEWARD (Integral evaluation for generally contracted gaussian basis sets)     Author: Roland Lindh, 1990

 Geometry written to block  1 of record 700

 Orientation using atomic masses  
 Molecule type: Symmetric top,     Order of principal axis = 3
 Rotational constants:      95.9136804     95.9136804     95.9648251 GHz  (calculated with average atomic masses)

 Point group  C1  



 ATOMIC COORDINATES

 NR  ATOM    CHARGE       X              Y              Z

   1  C1      6.00   -0.000000000    0.000000000    0.000236128
   2  H2      1.00   -0.000000000    0.000000000    2.645852712
   3  H3      1.00    2.493867962    0.000000000   -0.882888835
   4  H4      1.00   -1.246933981   -2.159753008   -0.882888835
   5  H5      1.00   -1.246933981    2.159753008   -0.882888835

 Bond lengths in Bohr (Angstrom)

 1-2  2.645616584  1-3  2.645616584  1-4  2.645616584  1-5  2.645616584
     ( 1.400000000)     ( 1.400000000)     ( 1.400000000)     ( 1.400000000)

 Bond angles

  2-1-3  109.50000000   2-1-4  109.50000000   2-1-5  109.50000000   3-1-4  109.44242594

  3-1-5  109.44242594   4-1-5  109.44242594

 NUCLEAR CHARGE:                   10
 NUMBER OF PRIMITIVE AOS:          55
 NUMBER OF SYMMETRY AOS:           54
 NUMBER OF CONTRACTIONS:           34   (  34A   )
 NUMBER OF CORE ORBITALS:           1   (   1A   )
 NUMBER OF VALENCE ORBITALS:        8   (   8A   )


 NUCLEAR REPULSION ENERGY   10.46041032


 Eigenvalues of metric

         1 0.160E-01 0.649E-01 0.649E-01 0.649E-01 0.928E-01 0.928E-01 0.928E-01 0.996E-01


 Contracted 2-electron integrals neglected if value below      1.0D-11
 AO integral compression algorithm  1   Integral accuracy      1.0D-11

     1.049 MB (compressed) written to integral file ( 59.2%)


 NUMBER OF SORTED TWO-ELECTRON INTEGRALS:     177310.     BUFFER LENGTH:  32768
 NUMBER OF SEGMENTS:   1  SEGMENT LENGTH:     177310      RECORD LENGTH: 524288

 Memory used in sort:       0.73 MW

 SORT1 READ      219389. AND WROTE      146782. INTEGRALS IN      1 RECORDS. CPU TIME:     0.01 SEC, REAL TIME:     0.00 SEC
 SORT2 READ      146782. AND WROTE      177310. INTEGRALS IN      4 RECORDS. CPU TIME:     0.01 SEC, REAL TIME:     0.00 SEC

 FILE SIZES:   FILE 1:     3.7 MBYTE,  FILE 4:     4.2 MBYTE,   TOTAL:      7.9 MBYTE

 OPERATOR DM      FOR CENTER  0  COORDINATES:    0.000000    0.000000    0.000000


 **********************************************************************************************************************************
 DATASETS  * FILE   NREC   LENGTH (MB)   RECORD NAMES
              1      19        3.36       500      610      700      900      950      970     1000      129      960     1100   
                                          VAR    BASINP    GEOM    SYMINP    ZMAT    AOBASIS   BASIS     P2S    ABASIS      S 
                                         1400     1410     1200     1210     1080     1600     1650     1300     1700   
                                           T        V       H0       H01     AOSYM     SMH    MOLCAS    ERIS     OPER   

              2       4        0.39       700     1000     2100     2140   
                                         GEOM     BASIS     RHF     MCSCF   

 PROGRAMS   *        TOTAL       INT       RS2    CASSCF        HF       INT       RS2    CASSCF        HF       INT       RS2
 CPU TIMES  *         0.42      0.06      0.02      0.03      0.01      0.05      0.01      0.04      0.00      0.07      0.02
 REAL TIME  *         0.68 SEC
 DISK USED  *         8.86 MB      
 **********************************************************************************************************************************

1PROGRAM * RHF-SCF (CLOSED SHELL)       Authors: W. Meyer, H.-J. Werner


 NUMBER OF ELECTRONS:       5+    5-    SPACE SYMMETRY=1    SPIN SYMMETRY: Singlet 
 CONVERGENCE THRESHOLDS:    1.00E-05 (Density)    1.00E-07 (Energy)
 MAX. NUMBER OF ITERATIONS:       60
 INTERPOLATION TYPE:            DIIS
 INTERPOLATION STEPS:              2 (START)      1 (STEP)
 LEVEL SHIFTS:                  0.00 (CLOSED)  0.00 (OPEN) 



 Molecular orbitals read from record     2100.2  Type=RHF/CANONICAL (state 1.1)

 Molecular orbital dump at record        2100.2

 ITERATION    DDIFF          GRAD             ENERGY        2-EL.EN.            DIPOLE MOMENTS         DIIS
    1      0.000D+00      0.000D+00       -40.03837192     46.934831   -0.00000    0.00000    0.00000    0
    2      0.000D+00      0.388D-02       -40.04153570     46.475751   -0.00000    0.00000    0.00005    1
    3      0.111D-01      0.127D-02       -40.04180415     46.686574   -0.00000    0.00000    0.00001    2
    4      0.275D-02      0.527D-03       -40.04186111     46.609559   -0.00000    0.00000    0.00003    3
    5      0.965D-03      0.451D-04       -40.04186181     46.610845   -0.00000    0.00000    0.00003    4
    6      0.145D-03      0.483D-05       -40.04186182     46.610931   -0.00000   -0.00000    0.00003    5
    7      0.164D-04      0.655D-06       -40.04186182     46.610955   -0.00000   -0.00000    0.00003    5
    8      0.167D-05      0.136D-06       -40.04186182     46.610962   -0.00000   -0.00000    0.00003    0

 Final occupancy:   5

 !RHF STATE 1.1 Energy                -40.041861818829
 Nuclear energy                        10.46041032
 One-electron energy                  -73.80775308
 Two-electron energy                   23.30548094
 Virial quotient                       -1.02887102
 !RHF STATE 1.1 Dipole moment          -0.00000000    -0.00000000     0.00002784
 Dipole moment /Debye                  -0.00000000    -0.00000000     0.00007075

 Orbital energies:

         1.1          2.1          3.1          4.1          5.1          6.1          7.1
    -11.339450    -0.838561    -0.473545    -0.473420    -0.473420     0.126047     0.212613


 **********************************************************************************************************************************
 DATASETS  * FILE   NREC   LENGTH (MB)   RECORD NAMES
              1      19        3.36       500      610      700      900      950      970     1000      129      960     1100   
                                          VAR    BASINP    GEOM    SYMINP    ZMAT    AOBASIS   BASIS     P2S    ABASIS      S 
                                         1400     1410     1200     1210     1080     1600     1650     1300     1700   
                                           T        V       H0       H01     AOSYM     SMH    MOLCAS    ERIS     OPER   

              2       4        0.39       700     1000     2100     2140   
[...]

 Geometry written to block  1 of record 700

 Orientation using atomic masses  
 Molecule type: Symmetric top,     Order of principal axis = 3
 Rotational constants:      20.8878682     20.8878682     20.8990064 GHz  (calculated with average atomic masses)

 Point group  C1  



 ATOMIC COORDINATES

 NR  ATOM    CHARGE       X              Y              Z

   1  C1      6.00   -0.000000000    0.000000000    0.000505989
   2  H2      1.00   -0.000000000    0.000000000    5.669684383
   3  H3      1.00    5.344002775    0.000000000   -1.891904646
   4  H4      1.00   -2.672001387   -4.628042161   -1.891904646
   5  H5      1.00   -2.672001387    4.628042161   -1.891904646

 NUCLEAR CHARGE:                   10
 NUMBER OF PRIMITIVE AOS:          55
 NUMBER OF SYMMETRY AOS:           54
 NUMBER OF CONTRACTIONS:           34   (  34A   )
 NUMBER OF CORE ORBITALS:           1   (   1A   )
 NUMBER OF VALENCE ORBITALS:        8   (   8A   )


 NUCLEAR REPULSION ENERGY    4.88152482


 Eigenvalues of metric

         1 0.394E-01 0.888E-01 0.888E-01 0.888E-01 0.975E-01 0.174E+00 0.174E+00 0.174E+00


 Contracted 2-electron integrals neglected if value below      1.0D-11
 AO integral compression algorithm  1   Integral accuracy      1.0D-11

     0.786 MB (compressed) written to integral file ( 46.2%)


 NUMBER OF SORTED TWO-ELECTRON INTEGRALS:     177310.     BUFFER LENGTH:  32768
 NUMBER OF SEGMENTS:   1  SEGMENT LENGTH:     177310      RECORD LENGTH: 524288

 Memory used in sort:       0.73 MW

 SORT1 READ      181940. AND WROTE      118618. INTEGRALS IN      1 RECORDS. CPU TIME:     0.00 SEC, REAL TIME:     0.00 SEC
 SORT2 READ      118618. AND WROTE      177310. INTEGRALS IN      3 RECORDS. CPU TIME:     0.00 SEC, REAL TIME:     0.01 SEC

 FILE SIZES:   FILE 1:     3.4 MBYTE,  FILE 4:     4.2 MBYTE,   TOTAL:      7.6 MBYTE

 OPERATOR DM      FOR CENTER  0  COORDINATES:    0.000000    0.000000    0.000000


 **********************************************************************************************************************************
 DATASETS  * FILE   NREC   LENGTH (MB)   RECORD NAMES
              1      19        3.11       500      610      700      900      950      970     1000      129      960     1100   
                                          VAR    BASINP    GEOM    SYMINP    ZMAT    AOBASIS   BASIS     P2S    ABASIS      S 
                                         1400     1410     1200     1210     1080     1600     1650     1300     1700   
                                           T        V       H0       H01     AOSYM     SMH    MOLCAS    ERIS     OPER   

              2       4        0.39       700     1000     2100     2140   
                                         GEOM     BASIS     RHF     MCSCF   

 PROGRAMS   *        TOTAL       INT       RS2    CASSCF        HF       INT       RS2    CASSCF        HF       INT       RS2
 CPU TIMES  *         2.00      0.03      0.02      0.01      0.01      0.04      0.01      0.02      0.01      0.05      0.01
 REAL TIME  *         2.54 SEC
 DISK USED  *         8.86 MB      
 **********************************************************************************************************************************

1PROGRAM * RHF-SCF (CLOSED SHELL)       Authors: W. Meyer, H.-J. Werner


 NUMBER OF ELECTRONS:       5+    5-    SPACE SYMMETRY=1    SPIN SYMMETRY: Singlet 
 CONVERGENCE THRESHOLDS:    1.00E-05 (Density)    1.00E-07 (Energy)
 MAX. NUMBER OF ITERATIONS:       60
 INTERPOLATION TYPE:            DIIS
 INTERPOLATION STEPS:              2 (START)      1 (STEP)
 LEVEL SHIFTS:                  0.00 (CLOSED)  0.00 (OPEN) 



 Molecular orbitals read from record     2100.2  Type=RHF/CANONICAL (state 1.1)

 Molecular orbital dump at record        2100.2

 ITERATION    DDIFF          GRAD             ENERGY        2-EL.EN.            DIPOLE MOMENTS         DIIS
    1      0.000D+00      0.000D+00       -39.18171960     34.833156    0.00000   -0.00000    0.00069    0
    2      0.000D+00      0.539D-03       -39.18181610     34.745536   -0.00000   -0.00000    0.00068    1
    3      0.139D-02      0.313D-03       -39.18180154     34.863179   -0.00000   -0.00000    0.00064    2
    4      0.113D-02      0.367D-03       -39.18184152     34.779260   -0.00000   -0.00000    0.00069    3
    5      0.529D-03      0.646D-04       -39.18184253     34.789680   -0.00000   -0.00000    0.00068    4
    6      0.175D-03      0.942D-06       -39.18184253     34.789620   -0.00000   -0.00000    0.00069    5
    7      0.599D-05      0.132D-06       -39.18184253     34.789618   -0.00000   -0.00000    0.00069    0

 Final occupancy:   5

 !RHF STATE 1.1 Energy                -39.181842528632
 Nuclear energy                         4.88152482
 One-electron energy                  -61.45817655
 Two-electron energy                   17.39480921
 Virial quotient                       -1.01915837
 !RHF STATE 1.1 Dipole moment          -0.00000000    -0.00000000     0.00069266
 Dipole moment /Debye                  -0.00000000    -0.00000000     0.00176046

 Orbital energies:

         1.1          2.1          3.1          4.1          5.1          6.1          7.1
    -11.568310    -0.819093    -0.315644    -0.315616    -0.315616    -0.164972    -0.067721


 **********************************************************************************************************************************
 DATASETS  * FILE   NREC   LENGTH (MB)   RECORD NAMES
              1      19        3.11       500      610      700      900      950      970     1000      129      960     1100   
                                          VAR    BASINP    GEOM    SYMINP    ZMAT    AOBASIS   BASIS     P2S    ABASIS      S 
                                         1400     1410     1200     1210     1080     1600     1650     1300     1700   
                                           T        V       H0       H01     AOSYM     SMH    MOLCAS    ERIS     OPER   

              2       4        0.39       700     1000     2100     2140   
                                         GEOM     BASIS     RHF     MCSCF   

 PROGRAMS   *        TOTAL        HF       INT       RS2    CASSCF        HF       INT       RS2    CASSCF        HF       INT
 CPU TIMES  *         2.01      0.02      0.03      0.02      0.01      0.01      0.04      0.01      0.02      0.01      0.05
 REAL TIME  *         2.55 SEC
 DISK USED  *         8.86 MB      
 **********************************************************************************************************************************

1PROGRAM * MULTI (Direct Multiconfiguration SCF)       Authors: P.J. Knowles, H.-J. Werner (1984)     S.T. Elbert (1988)


 Number of closed-shell orbitals:  4 (  4 )
 Number of active  orbitals:       2 (  2 )
 Number of external orbitals:     28 ( 28 )

 State symmetry 1

 Number of electrons:     2    Spin symmetry=Singlet   Space symmetry=1
 Number of states:        1
 Number of CSFs:          3   (4 determinants, 4 intermediate states)

 Molecular orbitals read from record     2140.2  Type=MCSCF/NATURAL (state 1.1)

 Wavefunction dump at record             2140.2

 Convergence thresholds  0.10E-01 (gradient)  0.10E-05 (energy)  0.10E-02 (step length)

 Number of orbital rotations:     176     (   8 Core/Active  112 Core/Virtual   0 Active/Active   56 Active/Virtual)
 Total number of variables:       180


 ITER. MIC  NCI  NEG     ENERGY(VAR)     ENERGY(PROJ)   ENERGY CHANGE     GRAD(0)  GRAD(ORB)   GRAD(CI)     STEP       TIME

   1   25    7    0     -39.33052075     -39.33070423   -0.00018348    0.01197517 0.00000014 0.00000000  0.21D-01      0.01
   2   31    8    0     -39.33070539     -39.33070543   -0.00000003    0.00015947 0.00000000 0.00000000  0.27D-03      0.01

 ** WVFN ****  CONVERGENCE REACHED, FINAL GRADIENT:  0.65D-07


 First order charge density matrix for state 1.1 saved on record  2140.2 (density set 1)

 Results for state 1.1
 =====================

 !MCSCF STATE 1.1 Energy              -39.330705425185
 Nuclear energy                         4.88152482
 Kinetic energy                        38.90274317
 One electron energy                  -61.55895865
 Two electron energy                   17.34672841
 Virial ratio                           2.01100082

 !MCSCF STATE 1.1 Dipole moment        -0.21340503    -0.36962835    -0.15046901
 Dipole moment /Debye                  -0.54238595    -0.93944002    -0.38242904


 Natural orbital dump at molpro section                    2140.2    (Orbital set 2)



 **********************************************************************************************************************************
 DATASETS  * FILE   NREC   LENGTH (MB)   RECORD NAMES
              1      20        3.42       500      610      700      900      950      970     1000      129      960     1100   
                                          VAR    BASINP    GEOM    SYMINP    ZMAT    AOBASIS   BASIS     P2S    ABASIS      S 
                                         1400     1410     1200     1210     1080     1600     1650     1300     1700     1380   
                                           T        V       H0       H01     AOSYM     SMH    MOLCAS    ERIS     OPER     JKOP   

              2       4        0.39       700     1000     2100     2140   
                                         GEOM     BASIS     RHF     MCSCF   

 PROGRAMS   *        TOTAL    CASSCF        HF       INT       RS2    CASSCF        HF       INT       RS2    CASSCF        HF
 CPU TIMES  *         2.03      0.02      0.02      0.03      0.02      0.01      0.01      0.04      0.01      0.02      0.01
 REAL TIME  *         2.58 SEC
 DISK USED  *         8.86 MB      
 **********************************************************************************************************************************

1PROGRAM * RS2 (Multireference RS Perturbation Theory)     Authors: H.-J. Werner (1993), P. Celani (1998)


 Level shift= 0.20

 Convergence thresholds:  THRVAR = 1.00D-08  THRDEN = 1.00D-06

 Number of optimized states:  1  Roots:   1
 Number of reference states:  1  Roots:   1

 Reference symmetry:                   1   Singlet 
 Number of electrons:                 10
 Maximum number of shells:             4
 Maximum number of spin couplings:     5

 Reference space:        3 conf        3 CSFs
 N elec internal:       15 conf       15 CSFs
 N-1 el internal:       23 conf       32 CSFs
 N-2 el internal:       25 conf       52 CSFs

 Number of electrons in valence space:                      8
 Maximum number of open shell orbitals in reference space:  2
 Maximum number of open shell orbitals in internal spaces:  6


 Number of core orbitals:           1 (   1 )
 Number of closed-shell orbitals:   3 (   3 )
 Number of active  orbitals:        2 (   2 )
 Number of external orbitals:      28 (  28 )

 Molecular orbitals read from record     2140.2  Type=MCSCF/NATURAL (state 1.1)

 Coulomb and exchange operators available. No transformation done.

 Number of p-space configurations:   3

 Reference wavefunction optimized for reference space (refopt=1)

 State     Reference Energy 
   1         -39.33070543

 Number of blocks in overlap matrix:     2   Smallest eigenvalue:  0.10D+01
 Number of N-2 electron functions:      22
 Number of N-1 electron functions:      32

 Number of internal configurations:                   15
 Number of singly external configurations:           896
 Number of doubly external configurations:          8680
 Total number of contracted configurations:         9591
 Total number of uncontracted configurations:      21351

 Weight factors for SA-density in H0:    1.000000

 FIMAX=  0.11D-01  FXMAX=  0.89D-12  DIAG=  F  T  NOREF=1  NOINT=0  IHPPD=2

 Nuclear energy:                       4.88152482
 Core energy:                        -33.77054692
 Zeroth-order valence energy:         -3.24862120
 Zeroth-order total energy:          -32.13764330
 First-order energy:                  -7.19306213

 Using uncontracted singles

 Diagonal Coupling coefficients finished.               Storage:     868 words, CPU-Time:      0.00 seconds.
 Energy denominators for pairs finished in 0 passes.    Storage:    2280 words, CPU-time:      0.00 seconds.

 A level shift of 0.20 is applied.

  ITER. STATE  ROOT     SQ.NORM     CORR.ENERGY   TOTAL ENERGY   ENERGY CHANGE       DEN1      VAR(S)    VAR(P)      TIME
    1     1     1     1.00876684    -0.00175337   -39.33245879    -0.00175337    -0.15997959  0.88D-02  0.12D+00     0.01
    2     1     1     1.13229743    -0.20016625   -39.53087167    -0.19841288    -0.01355577  0.18D-03  0.20D-01     0.01
    3     1     1     1.19355071    -0.22995650   -39.56066192    -0.02979025    -0.00173847  0.46D-04  0.33D-02     0.01
    4     1     1     1.22996896    -0.23887430   -39.56957972    -0.00891780    -0.00003387  0.78D-05  0.18D-06     0.01
    5     1     1     1.23016153    -0.23891647   -39.56962190    -0.00004218    -0.00000248  0.15D-07  0.29D-07     0.01
    6     1     1     1.23023971    -0.23893215   -39.56963757    -0.00001568    -0.00000029  0.82D-09  0.62D-10     0.01
    7     1     1     1.23024317    -0.23893284   -39.56963827    -0.00000069    -0.00000004  0.34D-11  0.34D-11     0.01
    8     1     1     1.23024396    -0.23893300   -39.56963842    -0.00000016    -0.00000000  0.15D-12  0.16D-13     0.01

 Energies without level shift correction:

    8     1     1     1.23024396    -0.19288420   -39.52358963

 Energy contributions for state 1.1:
 ===================================

            Energy contr.      SQ.Norm of FOWF
 Space I     -0.00008002          0.00006182
 Space S     -0.01167700          0.01027021
 Space P     -0.18112719          0.21991192


 =====================================
 Analysis of CPU times by interactions
 =====================================

       I      S      P

 I   0.0%
 S   0.0%   0.0%
 P   0.0%   0.0%   0.0%

 Initialization: 100.0%
 Other:            0.0%

 Total CPU:        0.0 seconds
 =====================================



 Reference coefficients greater than 0.0500000
 =============================================
 22220           0.7815414
 22202          -0.6238534

 Coefficients of doubly external configurations greater than 0.0500000
 =====================================================================

 PAIR    I     J   ->   K     L     NP  SYM  REF     COEFFICIENTS

   9    4.1   4.1      7.1   7.1     1   1    1   -0.24118139
   4    3.1   3.1      7.1   7.1     1   1    1   -0.24109409
   4    3.1   3.1      8.1   8.1     1   1    1   -0.10137304
   9    4.1   4.1      9.1   9.1     1   1    1   -0.10129326
   7    4.1   3.1      7.1   9.1     1   1    1   -0.08161701
   9    4.1   4.1      7.1   8.1     1   1    1   -0.05777838
   4    3.1   3.1      7.1   8.1     1   1    1    0.05774777
   7    4.1   3.1      8.1   9.1     1   1    1   -0.05735340
   1    2.1   2.1      9.1   9.1     1   1    1   -0.05057483
   1    2.1   2.1      8.1   8.1     1   1    1   -0.05056531
   8    4.1   3.1      8.1   9.1    -1   1    1   -0.05015345



 RESULTS FOR STATE 1.1
 =====================

 Coefficient of reference function:   C(0) = 1.00000000 (fixed)   1.00000000 (relaxed)

 Energy contributions of configuration classes

 CLASS          SQ.NORM        ECORR1        ECORR2
 +++++++++++++++++++++++++++++++++++++++++++++++++++
 Internals    0.00006182   -0.00008002    0.23873475
 Singles      0.01027021   -0.01167699   -0.02892947
 Pairs        0.21991192   -0.18112719   -0.44873827
 Total        1.23024396   -0.19288420   -0.23893300
 +++++++++++++++++++++++++++++++++++++++++++++++++++


 Reference energy                     -39.33070543
 Nuclear energy                         4.88152482
 Kinetic energy                        39.03361125
 One electron energy                  -61.58975932
 Two electron energy                   17.13859608
 Virial quotient                       -1.01373245
 Correlation energy                    -0.23893300
 !RSPT2 STATE 1.1 Energy              -39.569638422676

 !RSPT2 STATE 1.1 Dipole moment        -0.19261512    -0.33361918    -0.13584649
 Dipole moment /Debye                  -0.48954674    -0.84791983    -0.34526473


 **********************************************************************************************************************************
 DATASETS  * FILE   NREC   LENGTH (MB)   RECORD NAMES
              1      20        3.42       500      610      700      900      950      970     1000      129      960     1100   
                                          VAR    BASINP    GEOM    SYMINP    ZMAT    AOBASIS   BASIS     P2S    ABASIS      S 
                                         1400     1410     1200     1210     1080     1600     1650     1300     1700     1380   
                                           T        V       H0       H01     AOSYM     SMH    MOLCAS    ERIS     OPER     JKOP   

              2       4        0.39       700     1000     2100     2140   
                                         GEOM     BASIS     RHF     MCSCF   

 PROGRAMS   *        TOTAL       RS2    CASSCF        HF       INT       RS2    CASSCF        HF       INT       RS2    CASSCF
 CPU TIMES  *         2.05      0.02      0.02      0.02      0.03      0.02      0.01      0.01      0.04      0.01      0.02
 REAL TIME  *         2.59 SEC
 DISK USED  *         8.86 MB      
 **********************************************************************************************************************************
 SETTING ECAS(21)       =       -39.56963842  AU                              
                                                                                                                                                                                                                                                                

   DISTS       ECAS
     1.0   -40.33043345
     1.1   -40.36183348
     1.2   -40.34054399
     1.3   -40.28970150
     1.4   -40.22357496
     1.5   -40.15102091
     1.6   -40.07759478
     1.7   -40.00678266
     1.8   -39.94071557
     1.9   -39.88059592
     2.0   -39.82694120
     2.1   -39.77969269
     2.2   -39.73825595
     2.3   -39.70171471
     2.4   -39.66970447
     2.5   -39.64285913
     2.6   -39.62126885
     2.7   -39.60404747
     2.8   -39.59017952
     2.9   -39.57888958
     3.0   -39.56963842
                                                  

 Dump information in style MOLDEN to molpro.molden                                                                   

 Molecular orbitals read from record     2140.2  Type=MCSCF/NATURAL (state 1.1)
 Occupation numbers read from record     2140.2  Type=MCSCF/NATURAL (state 1.1)
 Orbital energies read from record       2140.2  Type=MCSCF/NATURAL (state 1.1)
 Redundancy group numbers read from rec  2140.2  Type=MCSCF/NATURAL (state 1.1)

 DUMP ORBITAL  1.1 AS ORBITAL    1  occ=    2.0000  eig=  -11.5092  GROUP=   2
 DUMP ORBITAL  2.1 AS ORBITAL    2  occ=    2.0000  eig=   -0.8047  GROUP=   2
 DUMP ORBITAL  3.1 AS ORBITAL    3  occ=    2.0000  eig=   -0.2992  GROUP=   2
 DUMP ORBITAL  4.1 AS ORBITAL    4  occ=    2.0000  eig=   -0.2991  GROUP=   2
 DUMP ORBITAL  5.1 AS ORBITAL    5  occ=    1.2216  eig=   -0.2563  GROUP=   3
 DUMP ORBITAL  6.1 AS ORBITAL    6  occ=    0.7784  eig=   -0.1665  GROUP=   3

 Total charge:      10.000000

 **********************************************************************************************************************************

        RS2             CASSCF          HF-SCF          RS2             CASSCF          HF-SCF          RS2             CASSCF  
    -39.56963842    -39.33070543    -39.18184253    -39.57888958    -39.34602707    -39.20740815    -39.59017952    -39.36312643
 **********************************************************************************************************************************
 Variable memory released
