[Molden Format]
[Molpro variables]
_NUMVAR=  679.0000000000000    
_EV2006= 0.3674930886769165E-01
_EV= 0.3674932534394180E-01
_KJOULE= 0.3808798324128737E-03
_KJOULE/MOL= 0.3808798324128737E-03
_CM= 0.4556335267302901E-05
_CM-1= 0.4556335267302901E-05
_KCAL= 0.1593601117815568E-02
_KCAL/MOL= 0.1593601117815568E-02
_KELVIN2006= 0.3166828861084835E-05
_KELVIN= 0.3166814820820034E-05
_HERTZ2006= 0.1519829850815779E-15
_HERTZ= 0.1519829846011223E-15
_HZ2006= 0.1519829850815779E-15
_HZ= 0.1519829846011223E-15
_TOA2006= 0.5291772490000000    
_TOA= 0.5291772090000000    
_TOANG2006= 0.5291772490000000    
_TOANG= 0.5291772090000000    
_TORAD= 0.1745329251994330E-01
_TOCM=  219474.6306700000    
_TODEBYE=  2.541580000000000    
_TOEV2006=  27.21139610000000    
_TOEV=  27.21138390000000    
_TOHERTZ2006=  6579683899900000.    
_TOHERTZ=  6579683920700000.    
_TOHZ2006=  6579683899900000.    
_TOHZ=  6579683920700000.    
_TOK2006=  315773.3000000000    
_TOK=  315774.7000000000    
_TOKCAL=  627.5096000000000    
_TOKELVIN2006=  315773.3000000000    
_TOKELVIN=  315774.7000000000    
_TOKJ=  2625.500000000000    
_TOKJOULE=  2625.500000000000    
_ANG2006=  1.889725988578923    
_ANG=  1.889726131421507    
_ANGSTROM2006=  1.889725988578923    
_ANGSTROM=  1.889726131421507    
_IGNORE_UNDEF=  2.000000000000000    
_STRICTCHECK=  0.000000000000000    
_SEW_ONEEL=  0.000000000000000    
_CPPDONE=FALSE
_DKROLL_DONE=  0.000000000000000    
_FOCKDONE=  0.000000000000000    
_GRADONE=FALSE
_HESSDONE=FALSE
_INTDONE=TRUE
_SCFDONE=TRUE
_MODUL_CUDA=FALSE
_MODUL_SLATER=FALSE
_MODUL_MRCC=FALSE
_MRCC_EXEC=
_FITC_AO_SAVED=FALSE
_FITC_MO_SAVED=FALSE
_SHARED_FS=TRUE
_LSTYP=SEWARD
_INTYP=INTS
_GEOMTYP=ZMAT
_GRADTYP=ALASKA
_DIRECT=FALSE
_SYNCM=  0.000000000000000    
_BASIS=CC-PVDZ
_ZORIENT=  1.000000000000000    
_NELEC=  10.00000000000000    
!SPIN=  0.000000000000000    
_QSDSTEP=  0.000000000000000    
_QSDIRC=  0.000000000000000    
_PROGRAM=RS2
_CPUSTEP= 0.2000000000000002E-01
_SYSSTEP=  0.000000000000000    
_WALLSTEP= 0.1000000000000000E-01
!DFMP2=  0.000000000000000    
!DFSCF=  0.000000000000000    
!SCSGRD=  0.000000000000000    
_BASINP=  610.0000000000000    
_CPUTOT=  2.050000000000000    
_DFTEXFAC=  1.000000000000000    
_DMX=-0.1926151219628307    
_DMY=-0.3336191793273684    
_DMZ=-0.1358464941048116    
_EMP2= -39.56963842267619    
_ENERGR= -39.33070542518530    
_ENERGU= -39.52358963002546    
_ENERGY= -39.56963842267619    
_ENUC=  4.881524816328003    
_GRADEXFAC=  9999.000000000000    
_GRADMETHOD=TRUE
!GRID_FREEZE= -1.000000000000000    
_ITERATIONS=  7.000000000000000    
_LASTNELEC=  2.000000000000000    
_LASTSPIN=  0.000000000000000    
_LASTSYM=  1.000000000000000    
_MPP_PROG=  0.000000000000000    
_NPROC_MPP=  1.000000000000000    
_NPROC_SMP=  1.000000000000000    
_NUMSTEP=  0.000000000000000    
_ORBITAL=  2140.200000000000    
_PI=  3.141592653589793    
!MCACT=  2.000000000000000    
!MCCLOSED=  4.000000000000000    
!MCFREEZE=  0.000000000000000    
!MCMS2=  0.000000000000000    
!MCNEL=  2.000000000000000    
!MCNSTSYM=  1.000000000000000    
!MCSTATE=  1.000000000000000    
!MCSYM=  1.000000000000000    
!MCWEIGHT=  1.000000000000000    
_SEIG_MIN= 0.3944092681541761E-01
_SEWPROP=TRUE
_STATUS=  1.000000000000000    
_SYSTOT= 0.4300000000000000    
_VERSION=  2010001.000000000    
_WALLTOT=  2.590000000000000    
_DATE=08-May-24
_LASTORB=MCSCF
_MACHINE=Linux-3.10.0-1160.108.1.el7.x86_64/molmod(x86_64) 64 bit serial version
_OUTPUT=/home/ospite/QM/lab6/lab6.2/ch4.xml
_PGROUP=C1
_TIME=14:44:05
_LIBMOL=/usr/local/molpro/molpros_2010_1_Linux_x86_64_i8/lib/
!SURFREC=  0.000000000000000    
!POLYREC=  0.000000000000000    
!DIPREC=  0.000000000000000    
!VSCFREC=  0.000000000000000    
!VCIREC=  0.000000000000000    
!PVCIREC=  0.000000000000000    
!VMP2REC=  0.000000000000000    
!VMCSCFREC=  0.000000000000000    
!GAREC=  0.000000000000000    
!SCFORB=  21002.00000000000    
!MCORB=  21402.00000000000    
!CIOCC=  6.000000000000000    
!CICORE=  1.000000000000000    
!CICLOS=  4.000000000000000    
!CIISTSYM=  1.000000000000000    
!CIISTMS2=  0.000000000000000    
!CIISTNEL=  8.000000000000000    
!NEWMOL=  0.000000000000000    
!NEWSYM=  0.000000000000000    
_SLFILES=slscratch
_NGSSTO=  9.000000000000000    
_SIN=SIN
_COS=COS
_TAN=TAN
_ACOS=ACOS
_ASIN=ASIN
_ATAN=ATAN
_COSH=COSH
_SINH=SINH
_TANH=TANH
_ABS=ABS
_MOD=MOD
_ERF=ERF
_REFC=REFC
_ERFC=ERFC
_HYPOT=HYPOT
_J0=J0
_J1=J1
_JN=JN
_GAMMA=GAMMA
_LGAMMA=LGAMMA
_Y0=Y0
_Y1=Y1
_YN=YN
_EXP=EXP
_LOG=LOG
_LOG10=LOG10
_SQRT=SQRT
_INT=INT
_NINT=NINT
_MAX=MAX
_MIN=MIN
_COSMO=  0.000000000000000    
_COSMOIT=  0.000000000000000    
_COSMOES=  0.000000000000000    
_COSMOEDS=  0.000000000000000    
_COSMOEC=  0.000000000000000    
_COSMOEDCORR=  0.000000000000000    
_FEPSI=  1.000000000000000    
_SL_IsMM=  0.000000000000000    
_SL_NSYM=  0.000000000000000    
_SL_System_BitSw=  0.000000000000000    
_SL_Unique_atoms=  0.000000000000000    
_SL_GRAD=  0.000000000000000    
_SL_MAXUPD_Hess=  5.000000000000000    
_SL_N_PRINT_COD=  5.000000000000000    
_SL_PRINT_CODES=  0.000000000000000    
_SL_BasType=  0.000000000000000    
_SL_Energy_Pred=  0.000000000000000    
_SL_New_Coords=  0.000000000000000    
_SL_Total_Nuclea=  0.000000000000000    
_SL_Highest_Mltp=  0.000000000000000    
_SL_Ref_Geom=  0.000000000000000    
!LATTICE= -1.000000000000000    
!NEWLATTICE=  0.000000000000000    
!LATGRAD_VAR=FALSE
!SEW_LATTICE=  1.000000000000000    
!LOCAL=  0.000000000000000    
!SAVEDOM= -1.000000000000000    
!RESTDOM= -1.000000000000000    
!SAVEDOM_HF= -1.000000000000000    
!RESTDOM_HF= -1.000000000000000    
!HESSREC=  0.000000000000000    
!FREQREC=  0.000000000000000    
!NMODREC=  0.000000000000000    
!GTASKS=  0.000000000000000    
!HTASKS=  0.000000000000000    
!THRCHG= 0.1000000000000000    
!DEBUG= -1.000000000000000    
!CFIT_CPHF=  0.000000000000000    
!RDOMAUX_CPHF=  3.000000000000000    
!THRAO_CPHF= 0.1000000000000000E-09
!THRMO_CPHF= 0.1000000000000000E-08
!THROV_CPHF= 0.1000000000000000E-11
!THRSW_CPHF= 0.1000000000000000E-09
!THRPROD_CPHF= 0.1000000000000000E-08
!THRAOPR_CPHF= 0.1000000000000000E-11
!CFIT_SCFGRD=  0.000000000000000    
!RDOMAUX_SCFGRD=  5.000000000000000    
!THRAO_SCFGRD= 0.1000000000000000E-09
!THRMO_SCFGRD= 0.1000000000000000E-08
!THROV_SCFGRD= 0.1000000000000000E-11
!THRSW_SCFGRD= 0.1000000000000000E-09
!THRPROD_SCFGRD= 0.1000000000000000E-08
!THRAOPR_SCFGRD= 0.1000000000000000E-11
!LOCFIT_SCF=  0.000000000000000    
!LOCFIT_MP2= -1.000000000000000    
_RIDOM=  0.000000000000000    
!CC2_METHOD=  0.000000000000000    
_BASIS2006=FALSE
_SVDDEL= -1.000000000000000    
_SVDDELA= -1.000000000000000    
_SVDDELP= -1.000000000000000    
_SVDDELF= -1.000000000000000    
_SVDDELS= -1.000000000000000    
_SVDDEL_ABS= -1.000000000000000    
_SVDDELA_ABS= -1.000000000000000    
_SVDDELP_ABS= -1.000000000000000    
_SVDDELF_ABS= -1.000000000000000    
_SVDDELS_ABS= -1.000000000000000    
_MAXBASIS=  0.000000000000000    
!OPT_CONICAL=  0.000000000000000    
!CLEARSP_JGRID=  0.000000000000000    
DISTS=  1.000000000000000    
I=  21.00000000000000    
R=  3.000000000000000    
GX1=-0.1665334536937735E-15
GY1=  0.000000000000000    
GZ1= 0.5059885748116832E-03
GX2=-0.1665334536937735E-15
GY2=  0.000000000000000    
GZ2=  5.669684382839332    
GX3=  5.344002774837069    
GY3=  0.000000000000000    
GZ3= -1.891904645650581    
GX4= -2.672001387418533    
GY4= -4.628042160903433    
GZ4= -1.891904645650581    
GX5= -2.672001387418533    
GY5=  4.628042160903433    
GZ5= -1.891904645650581    
ECAS= -40.33043345032643    
[Atoms] Angs
C     1    6        -0.0000000000        0.0000000000        0.0002677576
H     2    1        -0.0000000000        0.0000000000        3.0002677576
H     3    1         2.8279244733        0.0000000000       -1.0011528201
H     4    1        -1.4139622366       -2.4490544338       -1.0011528201
H     5    1        -1.4139622366        2.4490544338       -1.0011528201
[GTO]
  1 0
 s    9  1.00
  0.6665000000D+04  0.6920001793D-03
  0.1000000000D+04  0.5329001381D-02
  0.2280000000D+03  0.2707700701D-01
  0.6471000000D+02  0.1017180264D+00
  0.2106000000D+02  0.2747400712D+00
  0.7495000000D+01  0.4485641162D+00
  0.2797000000D+01  0.2850740738D+00
  0.5215000000D+00  0.1520400394D-01
  0.1596000000D+00 -0.3191000827D-02
 s    9  1.00
  0.6665000000D+04 -0.1460000642D-03
  0.1000000000D+04 -0.1154000508D-02
  0.2280000000D+03 -0.5725002519D-02
  0.6471000000D+02 -0.2331201026D-01
  0.2106000000D+02 -0.6395502813D-01
  0.7495000000D+01 -0.1499810660D+00
  0.2797000000D+01 -0.1272620560D+00
  0.5215000000D+00  0.5445292395D+00
  0.1596000000D+00  0.5804962554D+00
 s    9  1.00
  0.6665000000D+04  0.0000000000D+00
  0.1000000000D+04  0.0000000000D+00
  0.2280000000D+03  0.0000000000D+00
  0.6471000000D+02  0.0000000000D+00
  0.2106000000D+02  0.0000000000D+00
  0.7495000000D+01  0.0000000000D+00
  0.2797000000D+01  0.0000000000D+00
  0.5215000000D+00  0.0000000000D+00
  0.1596000000D+00  0.1000000000D+01
 p    4  1.00
  0.9439000000D+01  0.3810902127D-01
  0.2002000000D+01  0.2094801169D+00
  0.5456000000D+00  0.5085572839D+00
  0.1517000000D+00  0.4688422617D+00
 p    4  1.00
  0.9439000000D+01  0.0000000000D+00
  0.2002000000D+01  0.0000000000D+00
  0.5456000000D+00  0.0000000000D+00
  0.1517000000D+00  0.1000000000D+01
 d    1  1.00
  0.5500000000D+00  0.1000000000D+01
  
  2 0
 s    4  1.00
  0.1301000000D+02  0.1968498999D-01
  0.1962000000D+01  0.1379769298D+00
  0.4446000000D+00  0.4781477569D+00
  0.1220000000D+00  0.5012397451D+00
 s    4  1.00
  0.1301000000D+02  0.0000000000D+00
  0.1962000000D+01  0.0000000000D+00
  0.4446000000D+00  0.0000000000D+00
  0.1220000000D+00  0.1000000000D+01
 p    1  1.00
  0.7270000000D+00  0.1000000000D+01
  
  3 0
 s    4  1.00
  0.1301000000D+02  0.1968498999D-01
  0.1962000000D+01  0.1379769298D+00
  0.4446000000D+00  0.4781477569D+00
  0.1220000000D+00  0.5012397451D+00
 s    4  1.00
  0.1301000000D+02  0.0000000000D+00
  0.1962000000D+01  0.0000000000D+00
  0.4446000000D+00  0.0000000000D+00
  0.1220000000D+00  0.1000000000D+01
 p    1  1.00
  0.7270000000D+00  0.1000000000D+01
  
  4 0
 s    4  1.00
  0.1301000000D+02  0.1968498999D-01
  0.1962000000D+01  0.1379769298D+00
  0.4446000000D+00  0.4781477569D+00
  0.1220000000D+00  0.5012397451D+00
 s    4  1.00
  0.1301000000D+02  0.0000000000D+00
  0.1962000000D+01  0.0000000000D+00
  0.4446000000D+00  0.0000000000D+00
  0.1220000000D+00  0.1000000000D+01
 p    1  1.00
  0.7270000000D+00  0.1000000000D+01
  
  5 0
 s    4  1.00
  0.1301000000D+02  0.1968498999D-01
  0.1962000000D+01  0.1379769298D+00
  0.4446000000D+00  0.4781477569D+00
  0.1220000000D+00  0.5012397451D+00
 s    4  1.00
  0.1301000000D+02  0.0000000000D+00
  0.1962000000D+01  0.0000000000D+00
  0.4446000000D+00  0.0000000000D+00
  0.1220000000D+00  0.1000000000D+01
 p    1  1.00
  0.7270000000D+00  0.1000000000D+01


[MO]
 Sym=      1.1
 Ene=     -11.5092
 Spin= Alpha
 Occup=    2.000000
1 0.99974576083379
2 -0.002108807039630
3 0.001337827734473
4 -0.000020284292303
5 -0.000035133419787
6 -0.000014255112110
7 0.000024462713306
8 0.000042370656817
9 0.000017301496135
10 -0.000061446354203
11 0.000184236148737
12 -0.000122789794534
13 0.000245682501859
14 0.000100195293039
15 0.000173543332184
16 -0.000151176428767
17 0.000342500496637
18 -0.000000661350831
19 -0.000001145494267
20 -0.000055586967114
21 -0.000151192568742
22 0.000342504308498
23 -0.000052616596901
24 -0.000001145347152
25 0.000017932335053
26 -0.000241884901275
27 0.000331831062072
28 0.000024241279997
29 0.000041987139288
30 0.000017169897270
31 -0.000151192593630
32 0.000342504334139
33 0.000025316395755
34 -0.000046139988099
35 0.000017932337378
 Sym=      2.1
 Ene=      -0.8047
 Spin= Alpha
 Occup=    2.000000
1 0.020403631102394
2 1.09350891564925
3 -0.10580669792604
4 -0.001753346439060
5 -0.003036885086635
6 -0.001236174791801
7 0.000078242648080
8 0.000135520194674
9 0.000055350903910
10 -0.000349484566856
11 0.001048130958945
12 -0.000698646392089
13 0.001397615530449
14 0.000570116662840
15 0.000987470981087
16 0.025155595129281
17 0.003336692417832
18 -0.000083980356125
19 -0.000145458208378
20 -0.002040405410244
21 0.025150997835830
22 0.003334542934774
23 -0.001950903822023
24 -0.000145524524809
25 0.000601981874381
26 0.005437461141286
27 -0.001483831470599
28 0.000503457568150
29 0.000872014023073
30 0.000356656745318
31 0.025150997739920
32 0.003334543040579
33 0.000849423985182
34 -0.001762294515957
35 0.000601981864041
 Sym=      3.1
 Ene=      -0.2992
 Spin= Alpha
 Occup=    2.000000
1 -0.000004205134360
2 -0.000035689600958
3 0.000020503105694
4 -0.051328310654402
5 -0.088904216152772
6 0.29053792178960
7 -0.014112303294346
8 -0.024443494212788
9 0.079884310477954
10 -0.006402468142910
11 -0.003052138052889
12 0.009454606195799
13 0.003350352399902
14 0.000158604866060
15 0.000274735146092
16 0.52964137582571
17 0.19952691215080
18 -0.000196107182757
19 -0.000339667403070
20 -0.006504219543766
21 -0.26476452932930
22 -0.099738913699198
23 0.003082521568480
24 0.000197656622071
25 -0.001038302442570
26 -0.000014005647048
27 -0.000007691137202
28 -0.000102609421938
29 -0.000177726637626
30 0.000574768165372
31 -0.26476597890213
32 -0.099739459777141
33 -0.001370092820788
34 0.002768385462598
35 -0.001038307791206
 Sym=      4.1
 Ene=      -0.2991
 Spin= Alpha
 Occup=    2.000000
1 0.000000000042588
2 0.000000000285503
3 -0.000000000212916
4 0.26668135821244
5 -0.15396836724661
6 -0.000000458844716
7 0.073346933281123
8 -0.042346820110804
9 -0.000000126297692
10 0.005284117903686
11 -0.005284102957459
12 -0.000000014946226
13 0.003522733221753
14 -0.006416694407984
15 0.003704679664512
16 -0.000000837275077
17 -0.000000315442510
18 -0.000054855656707
19 0.000031671654734
20 0.000000010284989
21 0.45872633488556
22 0.17281394935415
23 -0.005374003310202
24 -0.000278176999306
25 0.001693861247767
26 0.000000000068808
27 -0.000000000103448
28 0.000528496691914
29 -0.000305127364044
30 -0.000000000915837
31 -0.45872549819895
32 -0.17281363423996
33 -0.002446089105177
34 0.004793103130973
35 -0.001693857988221
 Sym=      5.1
 Ene=      -0.2563
 Spin= Alpha
 Occup=    1.221614
1 0.000551393345459
2 0.024664431421160
3 0.002618738860737
4 0.34779475907985
5 0.60239819196202
6 0.24577212408050
7 -0.031940186202265
8 -0.055322025379054
9 -0.022574050828659
10 0.000884843759372
11 -0.002655451870586
12 0.001770608111214
13 -0.003540295601423
14 -0.001444705940315
15 -0.002502304044228
16 0.021611610175121
17 0.003461032964324
18 0.000270716666036
19 0.000468894980825
20 -0.000867856464671
21 0.021650716460683
22 0.003473926444450
23 -0.000727890716992
24 0.000468861913176
25 0.000545052367843
26 -0.67285099012319
27 -0.007197644572114
28 -0.000600974434660
29 -0.001040918193421
30 -0.000426110268145
31 0.021650716598715
32 0.003473926428460
33 0.000769991576915
34 -0.000395940968419
35 0.000545052363589
 Sym=      6.1
 Ene=      -0.1665
 Spin= Alpha
 Occup=    0.778386
1 -0.001255594063062
2 -0.036003591968139
3 -0.000710495172247
4 0.37750160738470
5 0.65385196202120
6 0.26676154278355
7 -0.042730495210662
8 -0.074011388136859
9 -0.030192649649142
10 0.000213885189692
11 -0.000644851940890
12 0.000430966751198
13 -0.000858737202578
14 -0.000349759873805
15 -0.000605801940707
16 0.016677984549096
17 0.002279374160210
18 0.000248879158941
19 0.000431071391133
20 -0.000646737947250
21 0.016644924689301
22 0.002266844730015
23 -0.000526492886319
24 0.000430920434879
25 0.000450418537530
26 0.74660540700769
27 -0.010464109355446
28 0.001196363662340
29 0.002072162617131
30 0.000847581663921
31 0.016644924744496
32 0.002266844630767
33 0.000636434499110
34 -0.000240495979833
35 0.000450418539182
 Sym=      7.1
 Ene=      -0.1600
 Spin= Alpha
 Occup=   -0.000000
1 0.017718634029321
2 0.20555061963310
3 -0.072214897632767
4 0.047295612183588
5 0.081918402648495
6 0.033498558636611
7 0.001386545248864
8 0.002401566385334
9 0.000995571323832
10 -0.000982294935180
11 0.002958300241839
12 -0.001976005306659
13 0.003940595242198
14 0.001610252857799
15 0.002789039783826
16 -0.41674764996611
17 -0.17129138827701
18 0.000429242420268
19 0.000743469573150
20 0.000047502454056
21 -0.41677470633396
22 -0.17130365650877
23 0.000189077934129
24 0.000744187286401
25 0.000387730628334
26 0.003695760755886
27 -0.004917928157392
28 -0.000239241056912
29 -0.000414377569354
30 -0.000169160530212
31 -0.41677470576909
32 -0.17130365609627
33 0.000549946108750
34 0.000535840018078
35 0.000387730616563
 Sym=      8.1
 Ene=      -0.0365
 Spin= Alpha
 Occup=   -0.000000
1 0.000005037551140
2 0.000038419780467
3 -0.000023541756111
4 0.12890810167011
5 0.22328307815769
6 -0.72969017866098
7 0.031135557179455
8 0.053930225913913
9 -0.17623708458144
10 -0.002396891539342
11 -0.002120217233720
12 0.004517108773062
13 0.000276723038171
14 0.001159159316348
15 0.002007736514135
16 0.29474064880870
17 0.12253747255641
18 0.000380367205425
19 0.000658840739973
20 0.009907957997404
21 -0.14742796158603
22 -0.061296307758146
23 -0.005375518120112
24 0.000777877941669
25 -0.000333180306058
26 -0.000061987371202
27 -0.000019814706393
28 0.000323837513453
29 0.000560922176695
30 -0.001813118067016
31 -0.14743049932343
32 -0.061297362892050
33 0.003361449653574
34 -0.004266469750150
35 -0.000333144518909
 Sym=      9.1
 Ene=      -0.0365
 Spin= Alpha
 Occup=   -0.000000
1 -0.000000000018586
2 -0.000000000078108
3 0.000000000087080
4 -0.67024119455653
5 0.38696245464095
6 0.000003628601312
7 -0.16192992806618
8 0.093489930207026
9 0.000000876551386
10 0.003673519774059
11 -0.003673497297787
12 -0.000000022476271
13 0.002449003844862
14 -0.001192619554816
15 0.000688545891725
16 -0.000001465482262
17 -0.000000609320591
18 -0.002215415247683
19 0.001279066226195
20 -0.000000049292078
21 0.25515666716949
22 0.10607818041940
23 0.007826654303145
24 0.001210420102829
25 -0.003598076701000
26 0.000000000007386
27 0.000000000468127
28 -0.001667530742915
29 0.000962745617021
30 0.000000009037025
31 -0.25515520167648
32 -0.10607757140778
33 0.002865039231280
34 -0.007383249129850
35 0.003598080085151
 Sym=     10.1
 Ene=       0.5707
 Spin= Alpha
 Occup=   -0.000000
1 -0.32063383988049
2 -1.66119244491309
3 1.68238180910011
4 0.17164040561379
5 0.29728990246515
6 0.12163133078080
7 -0.19647172462406
8 -0.34029900820665
9 -0.13912298235525
10 -0.001216695928604
11 0.003626712154659
12 -0.002410016226055
13 0.004843408348749
14 0.001981237406196
15 0.003431603889266
16 -0.66615526047890
17 0.65427628280171
18 -0.001370536896809
19 -0.002373839543613
20 -0.012492627616696
21 -0.66654613791461
22 0.65464708956061
23 -0.012242487117257
24 -0.002374207219866
25 0.002879141589979
26 -1.18917071818667
27 1.24083880908195
28 0.013837719394874
29 0.023967632701065
30 0.009800377902038
31 -0.66654613413407
32 0.65464708541616
33 0.004065120085073
34 -0.011789408657832
35 0.002879141608957
 Sym=     11.1
 Ene=       0.5915
 Spin= Alpha
 Occup=   -0.000000
1 -0.11699548290089
2 -0.60385474923764
3 0.61423534610879
4 -0.47301632554851
5 -0.81928830796317
6 -0.33435654847690
7 0.56554608240578
8 0.97955454802118
9 0.39974016032713
10 0.003355985769788
11 -0.010083512883024
12 0.006727527113236
13 -0.013439498678884
14 -0.005494978692838
15 -0.009517582229847
16 -0.67270328179001
17 0.64891375413053
18 0.004015992797607
19 0.006955903644267
20 -0.020586125715090
21 -0.67258564740439
22 0.64880094524478
23 -0.018061941217086
24 0.006956712415598
25 0.010656778775517
26 0.76947584506791
27 -0.75486457143167
28 -0.016551388847100
29 -0.028667846301152
30 -0.011728376950187
31 -0.67258564581149
32 0.64880094364433
33 0.015055660253371
34 -0.012163743628807
35 0.010656778822443
 Sym=     12.1
 Ene=       0.6152
 Spin= Alpha
 Occup=   -0.000000
1 -0.000150087268954
2 -0.000756120170700
3 0.000797161173752
4 0.18465262680910
5 0.31982990213435
6 -1.04415754011849
7 -0.19115737788176
8 -0.33109653858739
9 1.08066476336915
10 -0.014960981248839
11 -0.008996280952952
12 0.023957262201792
13 0.005964740843223
14 0.002465807311084
15 0.004270932171890
16 -1.24243166934856
17 1.20749886790792
18 -0.001357496977748
19 -0.002351269307587
20 -0.037133228182397
21 0.62099958471723
22 -0.60350514009293
23 0.019717722405851
24 -0.002258036321591
25 0.000038211061223
26 0.000029126947742
27 -0.000029781713950
28 -0.001281475424761
29 -0.002219595679386
30 0.007233750628684
31 0.62100168509858
32 -0.60350718072293
33 -0.011814400209635
34 0.015947084549578
35 0.000038185722220
 Sym=     13.1
 Ene=       0.6153
 Spin= Alpha
 Occup=   -0.000000
1 0.000000000035639
2 0.000000000291794
3 -0.000000000106839
4 -0.95935190860727
5 0.55388166553425
6 0.000001021335724
7 0.99297129288845
8 -0.57329181115749
9 -0.000001056826401
10 0.015577507239160
11 -0.015577483789261
12 -0.000000023449899
13 0.010384989268617
14 -0.012693181665885
15 0.007328406245283
16 0.000001217075648
17 -0.000001183052090
18 0.006863824556308
19 -0.003962827984925
20 0.000000036252857
21 -1.07565406575521
22 1.04539783011678
23 -0.029557855888412
24 -0.004017544921532
25 0.012865012748740
26 0.000000000235230
27 -0.000000000128874
28 0.006649012327976
29 -0.003838806278570
30 -0.000000007051540
31 1.07565285402801
32 -1.04539665271904
33 -0.011299608880639
34 0.027606595151007
35 -0.012865012789410
 Sym=     14.1
 Ene=       0.7003
 Spin= Alpha
 Occup=   -0.000000
1 -0.038464848837972
2 -0.18329174721669
3 0.20807883366158
4 0.41873965324972
5 0.72527836852340
6 0.29535615289367
7 -0.60544129749257
8 -1.04865510508002
9 -0.42715694031538
10 0.009084280195974
11 -0.027156191181949
12 0.018071910985975
13 -0.036240472038359
14 -0.014819762575651
15 -0.025668581893644
16 -0.48866972955920
17 0.54931275889231
18 -0.005750873227482
19 -0.009960804706814
20 0.018373370582668
21 -0.49049883722098
22 0.55133983814723
23 0.015445763458612
24 -0.009957866928573
25 -0.011562709699435
26 1.47844167178278
27 -1.77778957761102
28 0.031434541775897
29 0.054446223358058
30 0.022277253262586
31 -0.49049884950527
32 0.55133985228399
33 -0.016346647639675
34 0.008397490740973
35 -0.011562709912706
 Sym=     15.1
 Ene=       0.7187
 Spin= Alpha
 Occup=   -0.000000
1 0.000000000901203
2 0.000000004178362
3 -0.000000004962141
4 -0.94985110024946
5 0.54839675696106
6 0.000000063433473
7 1.19966094345318
8 -0.69262452785632
9 -0.000000079278759
10 -0.033325166009350
11 0.033325163105150
12 0.000000002904200
13 -0.022216775021759
14 0.026681539878551
15 -0.015404593162024
16 -0.000000079290871
17 0.000000091301004
18 0.011335758384069
19 -0.006544702650211
20 0.000000003970151
21 1.16412604932936
22 -1.33494688879074
23 -0.051742943930465
24 -0.006657127370094
25 0.022266729719777
26 -0.000000010449162
27 0.000000012515705
28 0.010870346855366
29 -0.006275997909694
30 -0.000000000786141
31 -1.16412596814039
32 1.33494679535696
33 -0.020106228093231
34 0.048139264221357
35 -0.022266729461301
 Sym=     16.1
 Ene=       0.7187
 Spin= Alpha
 Occup=   -0.000000
1 -0.000135847683342
2 -0.000667513468668
3 0.000729199719851
4 0.18243848193497
5 0.31599285356568
6 -1.03452176763838
7 -0.23037227627466
8 -0.39901665607329
9 1.30669713354049
10 0.031702144658098
11 0.019263171919286
12 -0.050965316577383
13 -0.012438978034678
14 -0.005416829558267
15 -0.009382227781367
16 1.34452874591468
17 -1.54189977362447
18 -0.002252822397681
19 -0.003902004428252
20 -0.064965618631265
21 -0.67149190782899
22 0.77010045707023
23 0.034258358060305
24 -0.003703579793839
25 -0.000514732533867
26 -0.000962180748745
27 0.001222541561566
28 -0.002135179411792
29 -0.003698240899169
30 0.011809287677201
31 -0.67149205019028
32 0.77010062023516
33 -0.020336575479625
34 0.027816824186440
35 -0.000514735295255
 Sym=     17.1
 Ene=       0.8055
 Spin= Alpha
 Occup=   -0.000000
1 -0.56161164457520
2 -2.69911542803234
3 3.03665323897137
4 -0.027145905259052
5 -0.047018084735601
6 -0.018711483572611
7 0.035583867175279
8 0.061633062412285
9 0.024496192224813
10 0.000233623330716
11 -0.000652217419369
12 0.000418594088654
13 -0.000885841454707
14 -0.000358493073718
15 -0.000620928349198
16 0.74184709758088
17 -0.86922679608158
18 0.000298835519146
19 0.000517598025792
20 -0.054386893048102
21 0.74216681069206
22 -0.86964224501131
23 -0.051220341136386
24 0.000517311762359
25 0.018448872906238
26 0.61413682256669
27 -0.74598648309685
28 0.022021037929648
29 0.038141556590446
30 0.015589406281264
31 0.74216680481270
32 -0.86964223857302
33 0.026058175800983
34 -0.044099460839609
35 0.018448873029427
 Sym=     18.1
 Ene=       1.3206
 Spin= Alpha
 Occup=   -0.000000
1 0.000008238586289
2 0.000037808830219
3 -0.000043461022875
4 -0.001410137312105
5 -0.002442292553783
6 0.007974996947823
7 0.002168847166536
8 0.003756342664973
9 -0.012282787555645
10 0.44603723856601
11 -0.10513076739725
12 -0.34090647116876
13 -0.55117195071262
14 0.34514464240496
15 0.59782374797062
16 -0.058080832849822
17 0.075845183395629
18 0.005045898062419
19 0.008739938845483
20 0.034260768972275
21 0.028997688181599
22 -0.037869508230293
23 -0.014080613337895
24 -0.009372360371327
25 0.011489966269642
26 -0.000012056524127
27 0.000016353178197
28 0.000944845891228
29 0.001636428281169
30 -0.005349063919988
31 0.028996874484573
32 -0.037868445603361
33 -0.001076580549935
34 -0.016879875178382
35 0.011489949332159
 Sym=     19.1
 Ene=       1.3206
 Spin= Alpha
 Occup=   -0.000000
1 0.000000000100827
2 0.000000000466585
3 -0.000000000539260
4 0.007316779448949
5 -0.004224371015749
6 0.000000064453398
7 -0.011265398031054
8 0.006504121223368
9 -0.000000099214777
10 0.18276057832802
11 -0.18275782208523
12 -0.000002756242782
13 0.12183351163281
14 0.83893691666473
15 -0.48435399969136
16 -0.000000469632230
17 0.000000613268366
18 0.009990725203801
19 -0.005768053575885
20 0.000000277197945
21 -0.050229030267976
22 0.065591825194928
23 0.031050491738823
24 0.004696419948234
25 -0.001062191035021
26 -0.000000000613280
27 0.000000000794905
28 -0.004926885374818
29 0.002844556227858
30 -0.000000042823307
31 0.050229499819975
32 -0.065592438411433
33 0.011458010235780
34 -0.029238998003406
35 0.001062377388225
 Sym=     20.1
 Ene=       1.3277
 Spin= Alpha
 Occup=   -0.000000
1 -0.000000000660866
2 -0.000000002941208
3 0.000000003714988
4 -0.014833498245585
5 0.008564397485177
6 -0.000000669457375
7 0.030765063546679
8 -0.017762784819427
9 0.000001388581390
10 0.72358440113586
11 -0.72362056149910
12 0.000036160363248
13 0.48240362464264
14 -0.20601588793789
15 0.11896608600657
16 0.000006301895073
17 -0.000008108734040
18 -0.001402786981842
19 0.000810194848177
20 -0.000003722848994
21 0.13162034202561
22 -0.16935665310841
23 -0.072625053730183
24 0.005025782655071
25 0.027811651371549
26 0.000000003839798
27 -0.000000004671646
28 -0.004459815486080
29 0.002574959223646
30 -0.000000201631096
31 -0.13162663747386
32 0.16936475367322
33 -0.040666840370138
34 0.060385138733856
35 -0.027813108506290
 Sym=     21.1
 Ene=       1.3277
 Spin= Alpha
 Occup=   -0.000000
1 -0.000009961032962
2 -0.000042120099570
3 0.000057590603057
4 0.002851763242558
5 0.004937978093420
6 -0.016144583853062
7 -0.005918232327696
8 -0.010247732226054
9 0.033484033283875
10 -0.45368884874495
11 -0.41814332446685
12 0.87183217321180
13 0.035465484343242
14 0.23754014940653
15 0.41141187937024
16 0.15193443981631
17 -0.19549722108587
18 0.003088455914971
19 0.005349228666885
20 -0.089759833196794
21 -0.075887771537824
22 0.097645796970443
23 0.041340612629015
24 -0.001986828768445
25 -0.017563188570832
26 0.000048920314571
27 -0.000058807029111
28 0.000868363668901
29 0.001503622658014
30 -0.004860802431709
31 -0.075876852679748
32 0.097631747613127
33 -0.022387577326577
34 0.034803597106908
35 -0.017560881096543
 Sym=     22.1
 Ene=       1.3321
 Spin= Alpha
 Occup=   -0.000000
1 -0.004060854487957
2 -0.020208490001292
3 0.019831422726615
4 0.009674857214827
5 0.016757343696149
6 0.006838273143518
7 -0.017994861542508
8 -0.031168013451816
9 -0.012713373978931
10 -0.16561079688627
11 0.49665044716139
12 -0.33103965027512
13 0.66226123055106
14 0.27077903896537
15 0.46900304144432
16 -0.054799596883069
17 0.070935663013385
18 0.001966785647376
19 0.003406571780322
20 0.033637812826064
21 -0.054905789438619
22 0.071068395776031
23 0.032409188848851
24 0.003389035355792
25 -0.009395443484266
26 0.17299381337310
27 -0.22212896557574
28 0.043816424102073
29 0.075892271516195
30 0.031035690666589
31 -0.054905786569933
32 0.071068392107817
33 -0.013269603585939
34 0.029761697135638
35 -0.009395442679853
 Sym=     23.1
 Ene=       1.4852
 Spin= Alpha
 Occup=   -0.000000
1 -0.000000000104018
2 -0.000000000458369
3 0.000000000543406
4 0.000013147241290
5 -0.000007590410620
6 -0.000000000024916
7 -0.000010397696522
8 0.000006002938022
9 -0.000000000111884
10 0.000073010132587
11 -0.000073008865622
12 -0.000000001266966
13 0.000048669406131
14 -0.000143145634966
15 0.000082645637427
16 -0.000000000330314
17 0.000000000332497
18 0.50435376815180
19 -0.29118882191715
20 -0.000000006556256
21 0.000025793510058
22 -0.000024461032482
23 -0.16554532875006
24 0.28724793757048
25 -0.46957597088662
26 -0.000000000370539
27 0.000000000457775
28 -0.000020259237603
29 0.000011702682101
30 0.000000004255637
31 -0.000025792985159
32 0.000024460532926
33 -0.33153654784715
34 -0.000257441180946
35 0.46957591042311
 Sym=     24.1
 Ene=       1.4855
 Spin= Alpha
 Occup=   -0.000000
1 -0.000019681695549
2 -0.000090701487322
3 0.000106079412775
4 0.000361385109242
5 0.000625906154195
6 -0.001901744445558
7 -0.000418978609320
8 -0.000725656601702
9 0.002157381925463
10 0.002796300429604
11 0.007038471275026
12 -0.009834771704631
13 0.004242424381594
14 -0.006622438443862
15 -0.011470480548385
16 -0.001337643074354
17 0.001444254298419
18 0.40815629740031
19 0.70694665248723
20 -0.049677835272467
21 0.000693492823309
22 -0.000745936831969
23 -0.056198140688710