 acqua                                                   
GAUSSIAN              5 MOL ORBITALS     42 PRIMITIVES        3 NUCLEI
  O    1    (CENTRE  1)  -0.00000000  0.00000000  0.22520374  CHARGE =  8.0
  H    2    (CENTRE  2)  -0.00000000  1.43504344 -0.90081495  CHARGE =  1.0
  H    3    (CENTRE  3)  -0.00000000 -1.43504344 -0.90081495  CHARGE =  1.0
CENTRE ASSIGNMENTS    1  1  1  1  1  1  1  1  1  1  1  1  1  1  1  1  1  1  1  1
CENTRE ASSIGNMENTS    1  1  1  1  1  1  1  1  2  2  2  2  2  2  2  3  3  3  3  3
CENTRE ASSIGNMENTS    3  3
TYPE ASSIGNMENTS      1  1  1  1  1  1  1  1  1  2  2  2  3  3  3  4  4  4  1  2
TYPE ASSIGNMENTS      3  4  5  6  7  8  9 10  1  1  1  1  2  3  4  1  1  1  1  2
TYPE ASSIGNMENTS      3  4
EXPONENTS  0.5484672D+04 0.8252349D+03 0.1880470D+03 0.5296450D+02 0.1689757D+02
EXPONENTS  0.5799635D+01 0.1553962D+02 0.3599934D+01 0.1013762D+01 0.1553962D+02
EXPONENTS  0.3599934D+01 0.1013762D+01 0.1553962D+02 0.3599934D+01 0.1013762D+01
EXPONENTS  0.1553962D+02 0.3599934D+01 0.1013762D+01 0.2700058D+00 0.2700058D+00
EXPONENTS  0.2700058D+00 0.2700058D+00 0.8000000D+00 0.8000000D+00 0.8000000D+00
EXPONENTS  0.8000000D+00 0.8000000D+00 0.8000000D+00 0.1873114D+02 0.2825394D+01
EXPONENTS  0.6401217D+00 0.1612778D+00 0.1100000D+01 0.1100000D+01 0.1100000D+01
EXPONENTS  0.1873114D+02 0.2825394D+01 0.6401217D+00 0.1612778D+00 0.1100000D+01
EXPONENTS  0.1100000D+01 0.1100000D+01
MO    1     MO 0.0        OCC NO =    2.0000000  ORB. ENERGY =  -19.137985
  0.82580258D+00  0.15199176D+01  0.24595136D+01  0.32330994D+01  0.27730106D+01
  0.94813941D+00 -0.16205606D-01 -0.72309100D-02  0.21352974D-01  0.00000000D+00
  0.00000000D+00  0.00000000D+00  0.00000000D+00  0.00000000D+00  0.00000000D+00
 -0.38695334D-02 -0.29812669D-02 -0.13089367D-02  0.27475451D-02  0.00000000D+00
  0.00000000D+00 -0.61532087D-04 -0.86247839D-02 -0.83464015D-02 -0.84058730D-02
  0.00000000D+00  0.00000000D+00  0.00000000D+00  0.31797091D-04  0.53933884D-04
  0.61401821D-04 -0.20841313D-03  0.00000000D+00  0.44259658D-03 -0.27107191D-03
  0.31797091D-04  0.53933884D-04  0.61401821D-04 -0.20841313D-03  0.00000000D+00
 -0.44259658D-03 -0.27107191D-03
MO    2     MO 0.0        OCC NO =    2.0000000  ORB. ENERGY =   -0.997322
 -0.17506733D+00 -0.32221734D+00 -0.52140849D+00 -0.68540605D+00 -0.58786879D+00
 -0.20100232D+00 -0.28894791D+00 -0.12892799D+00  0.38072609D+00  0.00000000D+00
  0.00000000D+00  0.00000000D+00  0.00000000D+00  0.00000000D+00  0.00000000D+00
 -0.37146531D+00 -0.28619400D+00 -0.12565458D+00  0.11269319D+00  0.00000000D+00
  0.00000000D+00 -0.11406032D-01 -0.90000360D-02  0.20523017D-03  0.33189978D-02
  0.00000000D+00  0.00000000D+00  0.00000000D+00  0.32669186D-01  0.55413122D-01
  0.63085881D-01  0.32197885D-02  0.00000000D+00 -0.33809358D-01  0.19972293D-01
  0.32669186D-01  0.55413122D-01  0.63085881D-01  0.32197885D-02  0.00000000D+00
  0.33809358D-01  0.19972293D-01
MO    3     MO 0.0        OCC NO =    2.0000000  ORB. ENERGY =   -0.515040
  0.00000000D+00  0.00000000D+00  0.00000000D+00  0.00000000D+00  0.00000000D+00
  0.00000000D+00 -0.00000000D+00 -0.00000000D+00  0.00000000D+00  0.00000000D+00
  0.00000000D+00  0.00000000D+00  0.16020802D+01  0.12343164D+01  0.54193139D+00
  0.00000000D+00  0.00000000D+00  0.00000000D+00  0.00000000D+00  0.00000000D+00
  0.68579777D-01  0.00000000D+00  0.00000000D+00  0.00000000D+00  0.00000000D+00
  0.00000000D+00  0.00000000D+00 -0.55626991D-01  0.52474641D-01  0.89006924D-01
  0.10133124D+00  0.28514815D-01  0.00000000D+00 -0.98061173D-02  0.25441996D-01
 -0.52474641D-01 -0.89006924D-01 -0.10133124D+00 -0.28514815D-01  0.00000000D+00
 -0.98061173D-02 -0.25441996D-01
MO    4     MO 0.0        OCC NO =    2.0000000  ORB. ENERGY =   -0.370986
 -0.72872988D-01 -0.13412520D+00 -0.21703989D+00 -0.28530501D+00 -0.24470445D+00
 -0.83668608D-01 -0.10760927D+00 -0.48015048D-01  0.14178908D+00  0.00000000D+00
  0.00000000D+00  0.00000000D+00  0.00000000D+00  0.00000000D+00  0.00000000D+00
  0.17226914D+01  0.13272409D+01  0.58273023D+00  0.11113834D+00  0.00000000D+00
  0.00000000D+00  0.10101083D+00 -0.16073998D-02 -0.49451765D-02 -0.51461964D-01
  0.00000000D+00  0.00000000D+00  0.00000000D+00 -0.30994466D-01 -0.52572481D-01
 -0.59851912D-01 -0.21096708D-01  0.00000000D+00  0.16489370D-01  0.17025711D-01
 -0.30994466D-01 -0.52572481D-01 -0.59851912D-01 -0.21096708D-01  0.00000000D+00
 -0.16489370D-01  0.17025711D-01
MO    5     MO 0.0        OCC NO =    2.0000000  ORB. ENERGY =   -0.291959
  0.00000000D+00  0.00000000D+00  0.00000000D+00  0.00000000D+00  0.00000000D+00
  0.00000000D+00 -0.00000000D+00 -0.00000000D+00  0.00000000D+00  0.20071968D+01
  0.15464369D+01  0.67896912D+00  0.00000000D+00  0.00000000D+00  0.00000000D+00
  0.00000000D+00  0.00000000D+00  0.00000000D+00  0.00000000D+00  0.13720924D+00
  0.00000000D+00  0.00000000D+00  0.00000000D+00  0.00000000D+00  0.00000000D+00
  0.00000000D+00 -0.56106298D-01  0.00000000D+00  0.00000000D+00  0.00000000D+00
  0.00000000D+00  0.00000000D+00  0.33703384D-01  0.00000000D+00  0.00000000D+00
  0.00000000D+00  0.00000000D+00  0.00000000D+00  0.00000000D+00  0.33703384D-01
  0.00000000D+00  0.00000000D+00
END DATA
 THE  HF ENERGY =    -76.419736620778 THE VIRIAL(-V/T)=   2.00782293
