 Entering Gaussian System, Link 0=g09
 Input=benzene.com
 Output=benzene.log
 Initial command:
 /programs/64bit/g09/g09-gfortran/bin/l1.exe /data/scratch/Gau-8176.inp -scrdir=/data/scratch/
 Entering Link 1 = /programs/64bit/g09/g09-gfortran/bin/l1.exe PID=      8177.
  
 Copyright (c) 1988,1990,1992,1993,1995,1998,2003,2009, Gaussian, Inc.
                  All Rights Reserved.
  
 This is part of the Gaussian(R) 09 program.  It is based on
 the Gaussian(R) 03 system (copyright 2003, Gaussian, Inc.),
 the Gaussian(R) 98 system (copyright 1998, Gaussian, Inc.),
 the Gaussian(R) 94 system (copyright 1995, Gaussian, Inc.),
 the Gaussian 92(TM) system (copyright 1992, Gaussian, Inc.),
 the Gaussian 90(TM) system (copyright 1990, Gaussian, Inc.),
 the Gaussian 88(TM) system (copyright 1988, Gaussian, Inc.),
 the Gaussian 86(TM) system (copyright 1986, Carnegie Mellon
 University), and the Gaussian 82(TM) system (copyright 1983,
 Carnegie Mellon University). Gaussian is a federally registered
 trademark of Gaussian, Inc.
  
 This software contains proprietary and confidential information,
 including trade secrets, belonging to Gaussian, Inc.
  
 This software is provided under written license and may be
 used, copied, transmitted, or stored only in accord with that
 written license.
  
 The following legend is applicable only to US Government
 contracts under FAR:
  
                    RESTRICTED RIGHTS LEGEND
  
 Use, reproduction and disclosure by the US Government is
 subject to restrictions as set forth in subparagraphs (a)
 and (c) of the Commercial Computer Software - Restricted
 Rights clause in FAR 52.227-19.
  
 Gaussian, Inc.
 340 Quinnipiac St., Bldg. 40, Wallingford CT 06492
  
  
 ---------------------------------------------------------------
 Warning -- This program may not be used in any manner that
 competes with the business of Gaussian, Inc. or will provide
 assistance to any competitor of Gaussian, Inc.  The licensee
 of this program is prohibited from giving any competitor of
 Gaussian, Inc. access to this program.  By using this program,
 the user acknowledges that Gaussian, Inc. is engaged in the
 business of creating and licensing software in the field of
 computational chemistry and represents and warrants to the
 licensee that it is not a competitor of Gaussian, Inc. and that
 it will not use this program in any manner prohibited above.
 ---------------------------------------------------------------
  

 Cite this work as:
 Gaussian 09, Revision A.02,
 M. J. Frisch, G. W. Trucks, H. B. Schlegel, G. E. Scuseria, 
 M. A. Robb, J. R. Cheeseman, G. Scalmani, V. Barone, B. Mennucci, 
 G. A. Petersson, H. Nakatsuji, M. Caricato, X. Li, H. P. Hratchian, 
 A. F. Izmaylov, J. Bloino, G. Zheng, J. L. Sonnenberg, M. Hada, 
 M. Ehara, K. Toyota, R. Fukuda, J. Hasegawa, M. Ishida, T. Nakajima, 
 Y. Honda, O. Kitao, H. Nakai, T. Vreven, J. A. Montgomery, Jr., 
 J. E. Peralta, F. Ogliaro, M. Bearpark, J. J. Heyd, E. Brothers, 
 K. N. Kudin, V. N. Staroverov, R. Kobayashi, J. Normand, 
 K. Raghavachari, A. Rendell, J. C. Burant, S. S. Iyengar, J. Tomasi, 
 M. Cossi, N. Rega, J. M. Millam, M. Klene, J. E. Knox, J. B. Cross, 
 V. Bakken, C. Adamo, J. Jaramillo, R. Gomperts, R. E. Stratmann, 
 O. Yazyev, A. J. Austin, R. Cammi, C. Pomelli, J. W. Ochterski, 
 R. L. Martin, K. Morokuma, V. G. Zakrzewski, G. A. Voth, 
 P. Salvador, J. J. Dannenberg, S. Dapprich, A. D. Daniels, 
 O. Farkas, J. B. Foresman, J. V. Ortiz, J. Cioslowski, 
 and D. J. Fox, Gaussian, Inc., Wallingford CT, 2009.
 
 ******************************************
 Gaussian 09:  EM64L-G09RevA.02 11-Jun-2009
                28-Jun-2024 
 ******************************************
 -----------------------------
 #p B3LYP/6-31+g** opt out=wfn
 -----------------------------
 1/14=-1,18=20,19=15,26=3,38=1/1,3;
 2/9=110,12=2,17=6,18=5,40=1/2;
 3/5=1,6=6,7=111,11=2,16=1,25=1,30=1,71=1,74=-5/1,2,3;
 4//1;
 5/5=2,38=5/2;
 6/7=2,8=2,9=2,10=2,28=1/1;
 7//1,2,3,16;
 1/14=-1,18=20,19=15/3(2);
 2/9=110/2;
 99/6=100/99;
 2/9=110/2;
 3/5=1,6=6,7=111,11=2,16=1,25=1,30=1,71=1,74=-5/1,2,3;
 4/5=5,16=3/1;
 5/5=2,38=5/2;
 7//1,2,3,16;
 1/14=-1,18=20,19=15/3(-5);
 2/9=110/2;
 6/7=2,8=2,9=2,10=2,19=2,28=1/1;
 99/6=100,9=1/99;
 Leave Link    1 at Fri Jun 28 18:57:14 2024, MaxMem=          0 cpu:       0.1
 (Enter /programs/64bit/g09/g09-gfortran/bin/l101.exe)
 -------
 benzene
 -------
 Symbolic Z-matrix:
 Charge =  0 Multiplicity = 1
 c
 c                    1    cc2
 c                    2    cc3      1    ccc3
 c                    3    cc4      2    ccc4     1    dih4     0
 c                    4    cc5      3    ccc5     2    dih5     0
 c                    5    cc6      4    ccc6     3    dih6     0
 h                    2    hc7      1    hcc7     3    dih7     0
 h                    3    hc8      2    hcc8     4    dih8     0
 h                    4    hc9      3    hcc9     5    dih9     0
 h                    5    hc10     4    hcc10    3    dih10    0
 h                    6    hc11     5    hcc11    4    dih11    0
 h                    1    hc12     2    hcc12    3    dih12    0
       Variables:
  cc2                   1.4                      
  cc3                   1.4                      
  ccc3                120.                       
  cc4                   1.4                      
  ccc4                120.                       
  dih4                  0.                       
  cc5                   1.4                      
  ccc5                120.                       
  dih5                  0.                       
  cc6                   1.4                      
  ccc6                120.                       
  dih6                  0.                       
  hc7                   1.089                    
  hcc7                120.                       
  dih7                180.                       
  hc8                   1.089                    
  hcc8                120.                       
  dih8                180.                       
  hc9                   1.089                    
  hcc9                120.                       
  dih9                180.                       
  hc10                  1.089                    
  hcc10               120.                       
  dih10               180.                       
  hc11                  1.089                    
  hcc11               120.                       
  dih11               180.                       
  hc12                  1.089                    
  hcc12               109.471                    
  dih12               180.                       
 
     1 tetrahedral angles replaced.
 NAtoms=     12 NQM=     12 NQMF=      0 NMic=      0 NMicF=      0 NTot=     12.
                    Isotopes and Nuclear Properties:
 (Nuclear quadrupole moments (NQMom) in fm**2, nuclear magnetic moments (NMagM)
  in nuclear magnetons)

  Atom         1           2           3           4           5           6           7           8           9          10
 IAtWgt=          12          12          12          12          12          12           1           1           1           1
 AtmWgt=  12.0000000  12.0000000  12.0000000  12.0000000  12.0000000  12.0000000   1.0078250   1.0078250   1.0078250   1.0078250
 NucSpn=           0           0           0           0           0           0           1           1           1           1
 AtZEff=   0.0000000   0.0000000   0.0000000   0.0000000   0.0000000   0.0000000   0.0000000   0.0000000   0.0000000   0.0000000
 NQMom=    0.0000000   0.0000000   0.0000000   0.0000000   0.0000000   0.0000000   0.0000000   0.0000000   0.0000000   0.0000000
 NMagM=    0.0000000   0.0000000   0.0000000   0.0000000   0.0000000   0.0000000   2.7928460   2.7928460   2.7928460   2.7928460

  Atom        11          12
 IAtWgt=           1           1
 AtmWgt=   1.0078250   1.0078250
 NucSpn=           1           1
 AtZEff=   0.0000000   0.0000000
 NQMom=    0.0000000   0.0000000
 NMagM=    2.7928460   2.7928460
 Leave Link  101 at Fri Jun 28 18:57:14 2024, MaxMem=   33554432 cpu:       0.1
 (Enter /programs/64bit/g09/g09-gfortran/bin/l103.exe)

 GradGradGradGradGradGradGradGradGradGradGradGradGradGradGradGradGradGrad
 Berny optimization.
 Initialization pass.
                           ----------------------------
                           !    Initial Parameters    !
                           ! (Angstroms and Degrees)  !
 --------------------------                            --------------------------
 ! Name  Definition              Value          Derivative Info.                !
 --------------------------------------------------------------------------------
 ! R1    R(1,2)                  1.4            estimate D2E/DX2                !
 ! R2    R(1,6)                  1.4            estimate D2E/DX2                !
 ! R3    R(1,12)                 1.089          estimate D2E/DX2                !
 ! R4    R(2,3)                  1.4            estimate D2E/DX2                !
 ! R5    R(2,7)                  1.089          estimate D2E/DX2                !
 ! R6    R(3,4)                  1.4            estimate D2E/DX2                !
 ! R7    R(3,8)                  1.089          estimate D2E/DX2                !
 ! R8    R(4,5)                  1.4            estimate D2E/DX2                !
 ! R9    R(4,9)                  1.089          estimate D2E/DX2                !
 ! R10   R(5,6)                  1.4            estimate D2E/DX2                !
 ! R11   R(5,10)                 1.089          estimate D2E/DX2                !
 ! R12   R(6,11)                 1.089          estimate D2E/DX2                !
 ! A1    A(2,1,6)              120.0            estimate D2E/DX2                !
 ! A2    A(2,1,12)             109.4712         estimate D2E/DX2                !
 ! A3    A(6,1,12)             130.5288         estimate D2E/DX2                !
 ! A4    A(1,2,3)              120.0            estimate D2E/DX2                !
 ! A5    A(1,2,7)              120.0            estimate D2E/DX2                !
 ! A6    A(3,2,7)              120.0            estimate D2E/DX2                !
 ! A7    A(2,3,4)              120.0            estimate D2E/DX2                !
 ! A8    A(2,3,8)              120.0            estimate D2E/DX2                !
 ! A9    A(4,3,8)              120.0            estimate D2E/DX2                !
 ! A10   A(3,4,5)              120.0            estimate D2E/DX2                !
 ! A11   A(3,4,9)              120.0            estimate D2E/DX2                !
 ! A12   A(5,4,9)              120.0            estimate D2E/DX2                !
 ! A13   A(4,5,6)              120.0            estimate D2E/DX2                !
 ! A14   A(4,5,10)             120.0            estimate D2E/DX2                !
 ! A15   A(6,5,10)             120.0            estimate D2E/DX2                !
 ! A16   A(1,6,5)              120.0            estimate D2E/DX2                !
 ! A17   A(1,6,11)             120.0            estimate D2E/DX2                !
 ! A18   A(5,6,11)             120.0            estimate D2E/DX2                !
 ! D1    D(6,1,2,3)              0.0            estimate D2E/DX2                !
 ! D2    D(6,1,2,7)            180.0            estimate D2E/DX2                !
 ! D3    D(12,1,2,3)           180.0            estimate D2E/DX2                !
 ! D4    D(12,1,2,7)             0.0            estimate D2E/DX2                !
 ! D5    D(2,1,6,5)              0.0            estimate D2E/DX2                !
 ! D6    D(2,1,6,11)           180.0            estimate D2E/DX2                !
 ! D7    D(12,1,6,5)           180.0            estimate D2E/DX2                !
 ! D8    D(12,1,6,11)            0.0            estimate D2E/DX2                !
 ! D9    D(1,2,3,4)              0.0            estimate D2E/DX2                !
 ! D10   D(1,2,3,8)            180.0            estimate D2E/DX2                !
 ! D11   D(7,2,3,4)            180.0            estimate D2E/DX2                !
 ! D12   D(7,2,3,8)              0.0            estimate D2E/DX2                !
 ! D13   D(2,3,4,5)              0.0            estimate D2E/DX2                !
 ! D14   D(2,3,4,9)            180.0            estimate D2E/DX2                !
 ! D15   D(8,3,4,5)            180.0            estimate D2E/DX2                !
 ! D16   D(8,3,4,9)              0.0            estimate D2E/DX2                !
 ! D17   D(3,4,5,6)              0.0            estimate D2E/DX2                !
 ! D18   D(3,4,5,10)           180.0            estimate D2E/DX2                !
 ! D19   D(9,4,5,6)            180.0            estimate D2E/DX2                !
 ! D20   D(9,4,5,10)             0.0            estimate D2E/DX2                !
 ! D21   D(4,5,6,1)              0.0            estimate D2E/DX2                !
 ! D22   D(4,5,6,11)           180.0            estimate D2E/DX2                !
 ! D23   D(10,5,6,1)           180.0            estimate D2E/DX2                !
 ! D24   D(10,5,6,11)            0.0            estimate D2E/DX2                !
 --------------------------------------------------------------------------------
 Trust Radius=3.00D-01 FncErr=1.00D-07 GrdErr=1.00D-06
 Number of steps in this run=  64 maximum allowed number of steps= 100.
 GradGradGradGradGradGradGradGradGradGradGradGradGradGradGradGradGradGrad

 Leave Link  103 at Fri Jun 28 18:57:14 2024, MaxMem=   33554432 cpu:       0.0
 (Enter /programs/64bit/g09/g09-gfortran/bin/l202.exe)
                          Input orientation:                          
 ---------------------------------------------------------------------
 Center     Atomic      Atomic             Coordinates (Angstroms)
 Number     Number       Type             X           Y           Z
 ---------------------------------------------------------------------
      1          6           0        0.000000    0.000000    0.000000
      2          6           0        0.000000    0.000000    1.400000
      3          6           0        1.212436    0.000000    2.100000
      4          6           0        2.424871    0.000000    1.400000
      5          6           0        2.424871    0.000000    0.000000
      6          6           0        1.212436    0.000000   -0.700000
      7          1           0       -0.943102    0.000000    1.944500
      8          1           0        1.212436    0.000000    3.189000
      9          1           0        3.367973    0.000000    1.944500
     10          1           0        3.367973    0.000000   -0.544500
     11          1           0        1.212436    0.000000   -1.789000
     12          1           0       -1.026719    0.000000   -0.363000
 ---------------------------------------------------------------------
                    Distance matrix (angstroms):
                    1          2          3          4          5
     1  C    0.000000
     2  C    1.400000   0.000000
     3  C    2.424871   1.400000   0.000000
     4  C    2.800000   2.424871   1.400000   0.000000
     5  C    2.424871   2.800000   2.424871   1.400000   0.000000
     6  C    1.400000   2.424871   2.800000   2.424871   1.400000
     7  H    2.161139   1.089000   2.161139   3.411704   3.889000
     8  H    3.411704   2.161139   1.089000   2.161139   3.411704
     9  H    3.889000   3.411704   2.161139   1.089000   2.161139
    10  H    3.411704   3.889000   3.411704   2.161139   1.089000
    11  H    2.161139   3.411704   3.889000   3.411704   2.161139
    12  H    1.089000   2.040177   3.328691   3.875777   3.470626
                    6          7          8          9         10
     6  C    0.000000
     7  H    3.411704   0.000000
     8  H    3.889000   2.489000   0.000000
     9  H    3.411704   4.311074   2.489000   0.000000
    10  H    2.161139   4.978000   4.311074   2.489000   0.000000
    11  H    1.089000   4.311074   4.978000   4.311074   2.489000
    12  H    2.264372   2.309015   4.198871   4.963655   4.398438
                   11         12
    11  H    0.000000
    12  H    2.654673   0.000000
 Stoichiometry    C6H6
 Framework group  CS[SG(C6H6)]
 Deg. of freedom    21
 Full point group                 CS      NOp   2
 Largest Abelian subgroup         CS      NOp   2
 Largest concise Abelian subgroup C1      NOp   1
                         Standard orientation:                         
 ---------------------------------------------------------------------
 Center     Atomic      Atomic             Coordinates (Angstroms)
 Number     Number       Type             X           Y           Z
 ---------------------------------------------------------------------
      1          6           0        1.210445   -0.704321    0.000000
      2          6           0        1.210445    0.695679    0.000000
      3          6           0       -0.001991    1.395679    0.000000
      4          6           0       -1.214426    0.695679    0.000000
      5          6           0       -1.214426   -0.704321    0.000000
      6          6           0       -0.001991   -1.404321    0.000000
      7          1           0        2.153546    1.240179    0.000000
      8          1           0       -0.001991    2.484679    0.000000
      9          1           0       -2.157528    1.240179    0.000000
     10          1           0       -2.157528   -1.248821    0.000000
     11          1           0       -0.001991   -2.493321    0.000000
     12          1           0        2.237164   -1.067321    0.000000
 ---------------------------------------------------------------------
 Rotational constants (GHZ):      5.6934610      5.6300533      2.8307898
 Leave Link  202 at Fri Jun 28 18:57:14 2024, MaxMem=   33554432 cpu:       0.0
 (Enter /programs/64bit/g09/g09-gfortran/bin/l301.exe)
 Standard basis: 6-31+G(d,p) (6D, 7F)
 Ernie: Thresh=  0.10000D-02 Tol=  0.10000D-05 Strict=F.
 There are   108 symmetry adapted basis functions of A'  symmetry.
 There are    36 symmetry adapted basis functions of A"  symmetry.
 Integral buffers will be    131072 words long.
 Raffenetti 2 integral format.
 Two-electron integral symmetry is turned on.
   144 basis functions,   234 primitive gaussians,   144 cartesian basis functions
    21 alpha electrons       21 beta electrons
       nuclear repulsion energy       202.7484813189 Hartrees.
 IExCor=  402 DFT=T Ex+Corr=B3LYP ExCW=0 ScaHFX=  0.200000
 ScaDFX=  0.800000  0.720000  1.000000  0.810000 ScalE2=  1.000000  1.000000
 IRadAn=      0 IRanWt=     -1 IRanGd=            0 ICorTp=0
 NAtoms=   12 NActive=   12 NUniq=   12 SFac= 7.50D-01 NAtFMM=   80 NAOKFM=F Big=F
 Leave Link  301 at Fri Jun 28 18:57:15 2024, MaxMem=   33554432 cpu:       0.0
 (Enter /programs/64bit/g09/g09-gfortran/bin/l302.exe)
 NPDir=0 NMtPBC=     1 NCelOv=     1 NCel=       1 NClECP=     1 NCelD=      1
         NCelK=      1 NCelE2=     1 NClLst=     1 CellRange=     0.0.
 One-electron integrals computed using PRISM.
 NBasis=   144 RedAO= T  NBF=   108    36
 NBsUse=   144 1.00D-06 NBFU=   108    36
 Precomputing XC quadrature grid using
 IXCGrd= 2 IRadAn=           0 IRanWt=          -1 IRanGd=           0 AccXCQ= 1.00D-10.
 NRdTot=     768 NPtTot=       97284 NUsed=      102829 NTot=      102861
 NSgBfM=   144   144   144   144   144 NAtAll=    12    12.
 Leave Link  302 at Fri Jun 28 18:57:15 2024, MaxMem=   33554432 cpu:       0.1
 (Enter /programs/64bit/g09/g09-gfortran/bin/l303.exe)
 DipDrv:  MaxL=1.
 Leave Link  303 at Fri Jun 28 18:57:15 2024, MaxMem=   33554432 cpu:       0.0
 (Enter /programs/64bit/g09/g09-gfortran/bin/l401.exe)
 Harris functional with IExCor=  402 diagonalized for initial guess.
 ExpMin= 4.38D-02 ExpMax= 3.05D+03 ExpMxC= 4.57D+02 IAcc=2 IRadAn=         0 AccDes= 0.00D+00
 HarFok:  IExCor=  402 AccDes= 0.00D+00 IRadAn=         0 IDoV= 1
 ScaDFX=  1.000000  1.000000  1.000000  1.000000
 FoFCou: FMM=F IPFlag=           0 FMFlag=      100000 FMFlg1=           0
         NFxFlg=           0 DoJE=T BraDBF=F KetDBF=T FulRan=T
         Omega=  0.000000  0.000000  1.000000  0.000000  0.000000 ICntrl=     500 IOpCl=  0
         NMat0=    1 NMatS0=    1 NMatT0=    0 NMatD0=    1 NMtDS0=    0 NMtDT0=    0
         I1Cent=           4 NGrid=           0.
 Petite list used in FoFCou.
 Harris En= -232.306420006504    
 Initial guess orbital symmetries:
       Occupied  (A') (A') (A') (A') (A') (A') (A') (A') (A') (A')
                 (A') (A') (A') (A') (A') (A') (A') (A") (A') (A")
                 (A")
       Virtual   (A") (A") (A') (A') (A") (A') (A') (A') (A') (A")
                 (A') (A") (A") (A') (A') (A') (A') (A') (A") (A")
                 (A') (A') (A') (A') (A') (A") (A') (A') (A') (A')
                 (A') (A') (A') (A') (A') (A') (A') (A') (A') (A')
                 (A') (A") (A') (A') (A") (A") (A") (A') (A") (A')
                 (A") (A') (A') (A') (A') (A') (A') (A') (A') (A')
                 (A') (A') (A') (A') (A') (A") (A") (A') (A") (A")
                 (A") (A") (A') (A') (A') (A') (A') (A') (A') (A')
                 (A") (A") (A') (A') (A") (A') (A') (A") (A") (A')
                 (A') (A") (A") (A") (A') (A') (A') (A') (A') (A")
                 (A") (A') (A') (A") (A") (A') (A') (A') (A') (A')
                 (A') (A') (A') (A') (A') (A') (A') (A') (A') (A')
                 (A') (A') (A')
 The electronic state of the initial guess is 1-A'.
 Leave Link  401 at Fri Jun 28 18:57:16 2024, MaxMem=   33554432 cpu:       1.6
 (Enter /programs/64bit/g09/g09-gfortran/bin/l502.exe)
 Closed shell SCF:
 Requested convergence on RMS density matrix=1.00D-08 within 128 cycles.
 Requested convergence on MAX density matrix=1.00D-06.
 Requested convergence on             energy=1.00D-06.
 No special actions if energy rises.
 Using DIIS extrapolation, IDIIS=  1040.
 Integral symmetry usage will be decided dynamically.
       102708 words used for storage of precomputed grid.
 IEnd=      185054 IEndB=      185054 NGot=    33554432 MDV=    33406899
 LenX=    33406899 LenY=    33385722
 Fock matrices will be formed incrementally for  20 cycles.

 Cycle   1  Pass 1  IDiag  1:
 FoFCou: FMM=F IPFlag=           0 FMFlag=      100000 FMFlg1=           0
         NFxFlg=           0 DoJE=F BraDBF=F KetDBF=F FulRan=T
         Omega=  0.000000  0.000000  1.000000  0.000000  0.000000 ICntrl=       0 IOpCl=  0
         NMat0=    1 NMatS0=    1 NMatT0=    0 NMatD0=    1 NMtDS0=    0 NMtDT0=    0
         I1Cent=           0 NGrid=           0.
 Petite list used in FoFCou.
 E= -232.103105118263    
 DIIS: error= 3.30D-02 at cycle   1 NSaved=   1.
 NSaved= 1 IEnMin= 1 EnMin= -232.103105118263     IErMin= 1 ErrMin= 3.30D-02
 ErrMax= 3.30D-02 EMaxC= 1.00D-01 BMatC= 1.35D-01 BMatP= 1.35D-01
 IDIUse=3 WtCom= 6.70D-01 WtEn= 3.30D-01
 Coeff-Com:  0.100D+01
 Coeff-En:   0.100D+01
 Coeff:      0.100D+01
 Gap=     0.179 Goal=   None    Shift=    0.000
 GapD=    0.179 DampG=1.000 DampE=0.500 DampFc=0.5000 IDamp=-1.
 Damping current iteration by 5.00D-01
 RMSDP=9.88D-03 MaxDP=1.23D-01              OVMax= 1.91D-01

 Cycle   2  Pass 1  IDiag  1:
 RMSU=  3.42D-03    CP:  9.59D-01
 E= -232.171713903846     Delta-E=       -0.068608785582 Rises=F Damp=T
 DIIS: error= 8.55D-03 at cycle   2 NSaved=   2.
 NSaved= 2 IEnMin= 2 EnMin= -232.171713903846     IErMin= 2 ErrMin= 8.55D-03
 ErrMax= 8.55D-03 EMaxC= 1.00D-01 BMatC= 7.63D-03 BMatP= 1.35D-01
 IDIUse=3 WtCom= 9.14D-01 WtEn= 8.55D-02
 Coeff-Com:  0.650D-01 0.935D+00
 Coeff-En:   0.130D+00 0.870D+00
 Coeff:      0.706D-01 0.929D+00
 Gap=     0.262 Goal=   None    Shift=    0.000
 RMSDP=4.14D-03 MaxDP=1.32D-01 DE=-6.86D-02 OVMax= 1.08D-01

 Cycle   3  Pass 1  IDiag  1:
 RMSU=  2.44D-03    CP:  9.03D-01  6.28D-01
 E= -232.262888517356     Delta-E=       -0.091174613510 Rises=F Damp=F
 DIIS: error= 4.12D-03 at cycle   3 NSaved=   3.
 NSaved= 3 IEnMin= 3 EnMin= -232.262888517356     IErMin= 3 ErrMin= 4.12D-03
 ErrMax= 4.12D-03 EMaxC= 1.00D-01 BMatC= 1.39D-03 BMatP= 7.63D-03
 IDIUse=3 WtCom= 9.59D-01 WtEn= 4.12D-02
 Coeff-Com: -0.312D-01 0.254D+00 0.777D+00
 Coeff-En:   0.000D+00 0.000D+00 0.100D+01
 Coeff:     -0.299D-01 0.244D+00 0.786D+00
 Gap=     0.241 Goal=   None    Shift=    0.000
 RMSDP=1.24D-03 MaxDP=2.86D-02 DE=-9.12D-02 OVMax= 8.73D-03

 Cycle   4  Pass 1  IDiag  1:
 RMSU=  4.65D-04    CP:  9.20D-01  6.89D-01  7.35D-01
 E= -232.264170594780     Delta-E=       -0.001282077424 Rises=F Damp=F
 DIIS: error= 4.80D-04 at cycle   4 NSaved=   4.
 NSaved= 4 IEnMin= 4 EnMin= -232.264170594780     IErMin= 4 ErrMin= 4.80D-04
 ErrMax= 4.80D-04 EMaxC= 1.00D-01 BMatC= 3.68D-05 BMatP= 1.39D-03
 IDIUse=3 WtCom= 9.95D-01 WtEn= 4.80D-03
 Coeff-Com: -0.118D-01 0.241D-01 0.173D+00 0.815D+00
 Coeff-En:   0.000D+00 0.000D+00 0.000D+00 0.100D+01
 Coeff:     -0.118D-01 0.240D-01 0.172D+00 0.816D+00
 Gap=     0.241 Goal=   None    Shift=    0.000
 RMSDP=2.12D-04 MaxDP=5.54D-03 DE=-1.28D-03 OVMax= 2.72D-03

 Cycle   5  Pass 1  IDiag  1:
 RMSU=  4.76D-05    CP:  9.16D-01  6.91D-01  7.81D-01  8.67D-01
 E= -232.264195354235     Delta-E=       -0.000024759455 Rises=F Damp=F
 DIIS: error= 4.61D-04 at cycle   5 NSaved=   5.
 NSaved= 5 IEnMin= 5 EnMin= -232.264195354235     IErMin= 5 ErrMin= 4.61D-04
 ErrMax= 4.61D-04 EMaxC= 1.00D-01 BMatC= 1.06D-05 BMatP= 3.68D-05
 IDIUse=3 WtCom= 9.95D-01 WtEn= 4.61D-03
 Coeff-Com: -0.702D-02 0.121D-01 0.975D-01 0.508D+00 0.389D+00
 Coeff-En:   0.000D+00 0.000D+00 0.000D+00 0.139D+00 0.861D+00
 Coeff:     -0.698D-02 0.121D-01 0.970D-01 0.506D+00 0.392D+00
 Gap=     0.241 Goal=   None    Shift=    0.000
 RMSDP=3.94D-05 MaxDP=7.97D-04 DE=-2.48D-05 OVMax= 1.72D-03

 Cycle   6  Pass 1  IDiag  1:
 RMSU=  1.95D-05    CP:  9.16D-01  6.91D-01  7.83D-01  8.66D-01  6.05D-01
 E= -232.264207509817     Delta-E=       -0.000012155581 Rises=F Damp=F
 DIIS: error= 6.87D-05 at cycle   6 NSaved=   6.
 NSaved= 6 IEnMin= 6 EnMin= -232.264207509817     IErMin= 6 ErrMin= 6.87D-05
 ErrMax= 6.87D-05 EMaxC= 1.00D-01 BMatC= 2.40D-07 BMatP= 1.06D-05
 IDIUse=1 WtCom= 1.00D+00 WtEn= 0.00D+00
 Coeff-Com: -0.694D-03 0.455D-03 0.718D-02 0.567D-01 0.145D+00 0.791D+00
 Coeff:     -0.694D-03 0.455D-03 0.718D-02 0.567D-01 0.145D+00 0.791D+00
 Gap=     0.241 Goal=   None    Shift=    0.000
 RMSDP=9.78D-06 MaxDP=2.31D-04 DE=-1.22D-05 OVMax= 2.60D-04

 Cycle   7  Pass 1  IDiag  1:
 RMSU=  3.00D-06    CP:  9.16D-01  6.91D-01  7.85D-01  8.63D-01  6.75D-01
                    CP:  9.57D-01
 E= -232.264207744831     Delta-E=       -0.000000235015 Rises=F Damp=F
 DIIS: error= 1.39D-05 at cycle   7 NSaved=   7.
 NSaved= 7 IEnMin= 7 EnMin= -232.264207744831     IErMin= 7 ErrMin= 1.39D-05
 ErrMax= 1.39D-05 EMaxC= 1.00D-01 BMatC= 4.19D-08 BMatP= 2.40D-07
 IDIUse=1 WtCom= 1.00D+00 WtEn= 0.00D+00
 Coeff-Com: -0.129D-03-0.211D-03 0.161D-03 0.127D-01 0.686D-01 0.456D+00
 Coeff-Com:  0.463D+00
 Coeff:     -0.129D-03-0.211D-03 0.161D-03 0.127D-01 0.686D-01 0.456D+00
 Coeff:      0.463D+00
 Gap=     0.241 Goal=   None    Shift=    0.000
 RMSDP=1.88D-06 MaxDP=4.47D-05 DE=-2.35D-07 OVMax= 7.01D-05

 Cycle   8  Pass 1  IDiag  1:
 RMSU=  9.67D-07    CP:  9.16D-01  6.91D-01  7.85D-01  8.63D-01  6.74D-01
                    CP:  9.79D-01  7.53D-01
 E= -232.264207785710     Delta-E=       -0.000000040878 Rises=F Damp=F
 DIIS: error= 1.55D-06 at cycle   8 NSaved=   8.
 NSaved= 8 IEnMin= 8 EnMin= -232.264207785710     IErMin= 8 ErrMin= 1.55D-06
 ErrMax= 1.55D-06 EMaxC= 1.00D-01 BMatC= 4.53D-10 BMatP= 4.19D-08
 IDIUse=1 WtCom= 1.00D+00 WtEn= 0.00D+00
 Coeff-Com:  0.161D-04-0.361D-04-0.509D-03-0.162D-02-0.331D-04 0.717D-02
 Coeff-Com:  0.928D-01 0.902D+00
 Coeff:      0.161D-04-0.361D-04-0.509D-03-0.162D-02-0.331D-04 0.717D-02
 Coeff:      0.928D-01 0.902D+00
 Gap=     0.241 Goal=   None    Shift=    0.000
 RMSDP=2.81D-07 MaxDP=6.23D-06 DE=-4.09D-08 OVMax= 6.66D-06

 Cycle   9  Pass 1  IDiag  1:
 RMSU=  8.82D-08    CP:  9.16D-01  6.91D-01  7.85D-01  8.64D-01  6.75D-01
                    CP:  9.79D-01  7.84D-01  9.08D-01
 E= -232.264207786169     Delta-E=       -0.000000000459 Rises=F Damp=F
 DIIS: error= 3.74D-07 at cycle   9 NSaved=   9.
 NSaved= 9 IEnMin= 9 EnMin= -232.264207786169     IErMin= 9 ErrMin= 3.74D-07
 ErrMax= 3.74D-07 EMaxC= 1.00D-01 BMatC= 7.67D-12 BMatP= 4.53D-10
 IDIUse=1 WtCom= 1.00D+00 WtEn= 0.00D+00
 Coeff-Com:  0.515D-05-0.106D-04-0.176D-03-0.602D-03-0.370D-03 0.482D-03
 Coeff-Com:  0.288D-01 0.308D+00 0.664D+00
 Coeff:      0.515D-05-0.106D-04-0.176D-03-0.602D-03-0.370D-03 0.482D-03
 Coeff:      0.288D-01 0.308D+00 0.664D+00
 Gap=     0.241 Goal=   None    Shift=    0.000
 RMSDP=6.65D-08 MaxDP=1.35D-06 DE=-4.59D-10 OVMax= 2.34D-06

 Cycle  10  Pass 1  IDiag  1:
 RMSU=  3.28D-08    CP:  9.16D-01  6.91D-01  7.85D-01  8.64D-01  6.75D-01
                    CP:  9.80D-01  7.85D-01  9.18D-01  7.01D-01
 E= -232.264207786174     Delta-E=       -0.000000000005 Rises=F Damp=F
 DIIS: error= 3.53D-07 at cycle  10 NSaved=  10.
 NSaved=10 IEnMin=10 EnMin= -232.264207786174     IErMin=10 ErrMin= 3.53D-07
 ErrMax= 3.53D-07 EMaxC= 1.00D-01 BMatC= 5.76D-12 BMatP= 7.67D-12
 IDIUse=1 WtCom= 1.00D+00 WtEn= 0.00D+00
 Coeff-Com:  0.820D-06-0.153D-05-0.426D-04-0.160D-03-0.242D-03-0.715D-03
 Coeff-Com:  0.541D-02 0.716D-01 0.464D+00 0.460D+00
 Coeff:      0.820D-06-0.153D-05-0.426D-04-0.160D-03-0.242D-03-0.715D-03
 Coeff:      0.541D-02 0.716D-01 0.464D+00 0.460D+00
 Gap=     0.241 Goal=   None    Shift=    0.000
 RMSDP=2.65D-08 MaxDP=4.71D-07 DE=-4.95D-12 OVMax= 1.19D-06

 Cycle  11  Pass 1  IDiag  1:
 RMSU=  8.48D-09    CP:  9.16D-01  6.91D-01  7.85D-01  8.64D-01  6.75D-01
                    CP:  9.80D-01  7.85D-01  9.19D-01  7.70D-01  5.53D-01
 E= -232.264207786180     Delta-E=       -0.000000000006 Rises=F Damp=F
 DIIS: error= 2.87D-08 at cycle  11 NSaved=  11.
 NSaved=11 IEnMin=11 EnMin= -232.264207786180     IErMin=11 ErrMin= 2.87D-08
 ErrMax= 2.87D-08 EMaxC= 1.00D-01 BMatC= 4.09D-14 BMatP= 5.76D-12
 IDIUse=1 WtCom= 1.00D+00 WtEn= 0.00D+00
 Coeff-Com: -0.108D-06 0.190D-06-0.246D-05-0.132D-04-0.378D-04-0.236D-03
 Coeff-Com:  0.296D-04 0.291D-02 0.973D-01 0.134D+00 0.766D+00
 Coeff:     -0.108D-06 0.190D-06-0.246D-05-0.132D-04-0.378D-04-0.236D-03
 Coeff:      0.296D-04 0.291D-02 0.973D-01 0.134D+00 0.766D+00
 Gap=     0.241 Goal=   None    Shift=    0.000
 RMSDP=4.85D-09 MaxDP=8.22D-08 DE=-6.08D-12 OVMax= 1.13D-07

 SCF Done:  E(RB3LYP) =  -232.264207786     A.U. after   11 cycles
             Convg  =    0.4854D-08             -V/T =  2.0104
 KE= 2.298696643572D+02 PE=-9.424094044851D+02 EE= 2.775270510229D+02
 Leave Link  502 at Fri Jun 28 18:57:47 2024, MaxMem=   33554432 cpu:      30.3
 (Enter /programs/64bit/g09/g09-gfortran/bin/l601.exe)
 Copying SCF densities to generalized density rwf, IOpCl= 0 IROHF=0.

 **********************************************************************

            Population analysis using the SCF density.

 **********************************************************************

 Orbital symmetries:
       Occupied  (A') (A') (A') (A') (A') (A') (A') (A') (A') (A')
                 (A') (A') (A') (A') (A') (A') (A") (A') (A') (A")
                 (A")
       Virtual   (A") (A") (A') (A') (A') (A') (A') (A") (A') (A')
                 (A") (A") (A') (A") (A") (A') (A") (A') (A') (A')
                 (A') (A') (A') (A") (A') (A') (A') (A') (A') (A')
                 (A') (A') (A') (A') (A') (A') (A') (A') (A') (A')
                 (A') (A") (A") (A") (A') (A') (A") (A") (A') (A')
                 (A") (A') (A') (A') (A') (A') (A') (A') (A') (A')
                 (A') (A') (A') (A') (A') (A") (A") (A') (A") (A")
                 (A") (A") (A') (A') (A') (A') (A') (A') (A') (A')
                 (A") (A") (A') (A') (A") (A') (A') (A") (A") (A')
                 (A") (A') (A") (A") (A') (A') (A') (A') (A') (A")
                 (A") (A') (A') (A") (A") (A') (A') (A') (A') (A')
                 (A') (A') (A') (A') (A') (A') (A') (A') (A') (A')
                 (A') (A') (A')
 The electronic state is 1-A'.
 Alpha  occ. eigenvalues --  -10.20200 -10.20029 -10.19916 -10.19910 -10.19800
 Alpha  occ. eigenvalues --  -10.19664  -0.85652  -0.75107  -0.74861  -0.61020
 Alpha  occ. eigenvalues --   -0.60344  -0.52593  -0.46689  -0.44940  -0.42555
 Alpha  occ. eigenvalues --   -0.42332  -0.36946  -0.35240  -0.34346  -0.25777
 Alpha  occ. eigenvalues --   -0.25756
 Alpha virt. eigenvalues --   -0.01642  -0.01554   0.00814   0.02462   0.02631
 Alpha virt. eigenvalues --    0.04431   0.04596   0.06651   0.07763   0.07921
 Alpha virt. eigenvalues --    0.09149   0.09241   0.09854   0.12430   0.14226
 Alpha virt. eigenvalues --    0.14258   0.14294   0.14399   0.15478   0.15519
 Alpha virt. eigenvalues --    0.19192   0.19591   0.19878   0.20443   0.21086
 Alpha virt. eigenvalues --    0.21169   0.23502   0.24267   0.24375   0.26592
 Alpha virt. eigenvalues --    0.27187   0.28272   0.32095   0.34378   0.34561
 Alpha virt. eigenvalues --    0.34708   0.35626   0.55738   0.56634   0.60173
 Alpha virt. eigenvalues --    0.62128   0.65854   0.71666   0.71709   0.71720
 Alpha virt. eigenvalues --    0.71882   0.74525   0.74633   0.76554   0.76817
 Alpha virt. eigenvalues --    0.79981   0.82843   0.88024   0.91013   0.91489
 Alpha virt. eigenvalues --    0.94370   0.95149   0.97352   1.02073   1.06920
 Alpha virt. eigenvalues --    1.06967   1.10595   1.13584   1.16407   1.17272
 Alpha virt. eigenvalues --    1.24955   1.29580   1.31027   1.39510   1.39780
 Alpha virt. eigenvalues --    1.41443   1.42348   1.42950   1.43569   1.74163
 Alpha virt. eigenvalues --    1.78164   1.83652   1.87092   1.92621   1.93901
 Alpha virt. eigenvalues --    1.97121   1.98467   2.00000   2.00974   2.02528
 Alpha virt. eigenvalues --    2.05346   2.09088   2.26862   2.29119   2.33409
 Alpha virt. eigenvalues --    2.36364   2.38112   2.39680   2.41750   2.42750
 Alpha virt. eigenvalues --    2.45728   2.48027   2.50952   2.51963   2.57504
 Alpha virt. eigenvalues --    2.59035   2.59871   2.60617   2.65283   2.75732
 Alpha virt. eigenvalues --    2.78252   2.82423   3.00498   3.04371   3.18794
 Alpha virt. eigenvalues --    3.25074   3.26550   3.27147   3.38942   3.49911
 Alpha virt. eigenvalues --    3.54538   3.93309   4.27103   4.28613   4.28899
 Alpha virt. eigenvalues --    4.48448   4.49426   4.85235
          Condensed to atoms (all electrons):
              1          2          3          4          5          6
     1  C    4.917228   0.448495  -0.031459  -0.073692   0.014876   0.529878
     2  C    0.448495   5.011119   0.474460  -0.010251  -0.078832  -0.030019
     3  C   -0.031459   0.474460   4.982217   0.478920  -0.010006  -0.081302
     4  C   -0.073692  -0.010251   0.478920   4.954722   0.485532  -0.017838
     5  C    0.014876  -0.078832  -0.010006   0.485532   4.910334   0.492837
     6  C    0.529878  -0.030019  -0.081302  -0.017838   0.492837   4.945320
     7  H    0.030522   0.243443   0.024407   0.002889   0.001137   0.005204
     8  H    0.003217   0.028871   0.245179   0.025190   0.001653   0.001397
     9  H   -0.000055   0.002441   0.024347   0.254043   0.022750   0.003807
    10  H   -0.000048  -0.001429   0.002750   0.025381   0.264398   0.018245
    11  H    0.009790   0.006753  -0.003915   0.006643   0.018477   0.270077
    12  H    0.271917   0.031692   0.016685  -0.003711  -0.004641  -0.004868
              7          8          9         10         11         12
     1  C    0.030522   0.003217  -0.000055  -0.000048   0.009790   0.271917
     2  C    0.243443   0.028871   0.002441  -0.001429   0.006753   0.031692
     3  C    0.024407   0.245179   0.024347   0.002750  -0.003915   0.016685
     4  C    0.002889   0.025190   0.254043   0.025381   0.006643  -0.003711
     5  C    0.001137   0.001653   0.022750   0.264398   0.018477  -0.004641
     6  C    0.005204   0.001397   0.003807   0.018245   0.270077  -0.004868
     7  H    0.583949  -0.005957  -0.000156   0.000013  -0.000158  -0.008761
     8  H   -0.005957   0.584078  -0.006196  -0.000154   0.000014  -0.000217
     9  H   -0.000156  -0.006196   0.580470  -0.005976  -0.000157   0.000014
    10  H    0.000013  -0.000154  -0.005976   0.577192  -0.006033  -0.000120
    11  H   -0.000158   0.000014  -0.000157  -0.006033   0.575929  -0.004115
    12  H   -0.008761  -0.000217   0.000014  -0.000120  -0.004115   0.580880
 Mulliken atomic charges:
              1
     1  C   -0.120670
     2  C   -0.126742
     3  C   -0.122285
     4  C   -0.127828
     5  C   -0.118514
     6  C   -0.132738
     7  H    0.123467
     8  H    0.122924
     9  H    0.124668
    10  H    0.125780
    11  H    0.126694
    12  H    0.125244
 Sum of Mulliken atomic charges =  -0.00000
 Mulliken charges with hydrogens summed into heavy atoms:
              1
     1  C    0.004574
     2  C   -0.003276
     3  C    0.000639
     4  C   -0.003160
     5  C    0.007266
     6  C   -0.006043
 Sum of Mulliken charges with hydrogens summed into heavy atoms =  -0.00000
 Electronic spatial extent (au):  <R**2>=            462.5542
 Charge=             -0.0000 electrons
 Dipole moment (field-independent basis, Debye):
    X=              0.0153    Y=              0.0621    Z=              0.0000  Tot=              0.0640
 Quadrupole moment (field-independent basis, Debye-Ang):
   XX=            -31.9450   YY=            -32.6139   ZZ=            -40.3908
   XY=              0.2662   XZ=              0.0000   YZ=              0.0000
 Traceless Quadrupole moment (field-independent basis, Debye-Ang):
   XX=              3.0382   YY=              2.3694   ZZ=             -5.4076
   XY=              0.2662   XZ=              0.0000   YZ=              0.0000
 Octapole moment (field-independent basis, Debye-Ang**2):
  XXX=              0.8797  YYY=              0.4042  ZZZ=              0.0000  XYY=             -0.8154
  XXY=              0.3805  XXZ=              0.0000  XZZ=             -0.0061  YZZ=              0.0221
  YYZ=              0.0000  XYZ=              0.0000
 Hexadecapole moment (field-independent basis, Debye-Ang**3):
 XXXX=           -279.3453 YYYY=           -281.1874 ZZZZ=            -52.2238 XXXY=              0.1564
 XXXZ=              0.0000 YYYX=              0.9477 YYYZ=              0.0000 ZZZX=              0.0000
 ZZZY=              0.0000 XXYY=            -95.4876 XXZZ=            -66.8463 YYZZ=            -66.2749
 XXYZ=              0.0000 YYXZ=              0.0000 ZZXY=             -0.2031
 N-N= 2.027484813189D+02 E-N=-9.424094039476D+02  KE= 2.298696643572D+02
 Symmetry A'   KE= 2.236327548516D+02
 Symmetry A"   KE= 6.236909505581D+00
 No NMR shielding tensors so no spin-rotation constants.
 Leave Link  601 at Fri Jun 28 18:57:47 2024, MaxMem=   33554432 cpu:       0.0
 (Enter /programs/64bit/g09/g09-gfortran/bin/l701.exe)
 Compute integral first derivatives.
 ... and contract with generalized density number  0.
 Leave Link  701 at Fri Jun 28 18:57:47 2024, MaxMem=   33554432 cpu:       0.0
 (Enter /programs/64bit/g09/g09-gfortran/bin/l702.exe)
 L702 exits ... SP integral derivatives will be done elsewhere.
 Leave Link  702 at Fri Jun 28 18:57:47 2024, MaxMem=   33554432 cpu:       0.0
 (Enter /programs/64bit/g09/g09-gfortran/bin/l703.exe)
 Compute integral first derivatives, UseDBF=F ICtDFT=           0.
 Integral derivatives from FoFDir, PRISM(SPDF).
 Calling FoFJK, ICntrl=      2127 FMM=F ISym2X=1 I1Cent= 0 IOpClX= 0 NMat=1 NMatS=1 NMatT=0.
 FoFCou: FMM=F IPFlag=           0 FMFlag=      100000 FMFlg1=         800
         NFxFlg=           0 DoJE=F BraDBF=F KetDBF=F FulRan=T
         Omega=  0.000000  0.000000  1.000000  0.000000  0.000000 ICntrl=    2127 IOpCl=  0
         NMat0=    1 NMatS0=    1 NMatT0=    0 NMatD0=    1 NMtDS0=    0 NMtDT0=    0
         I1Cent=           0 NGrid=           0.
 Petite list used in FoFCou.
 Leave Link  703 at Fri Jun 28 18:57:55 2024, MaxMem=   33554432 cpu:       7.6
 (Enter /programs/64bit/g09/g09-gfortran/bin/l716.exe)
 Dipole        = 6.00619308D-03 2.44371732D-02 0.00000000D+00
 ***** Axes restored to original set *****
 -------------------------------------------------------------------
 Center     Atomic                   Forces (Hartrees/Bohr)
 Number     Number              X              Y              Z
 -------------------------------------------------------------------
      1        6          -0.009864586   -0.000000000    0.019905235
      2        6           0.011036847   -0.000000000    0.004673977
      3        6          -0.000087997   -0.000000000    0.002199287
      4        6          -0.000158769   -0.000000000    0.000477043
      5        6          -0.001390147   -0.000000000    0.001028542
      6        6          -0.007194103   -0.000000000   -0.006550246
      7        1           0.001630139   -0.000000000   -0.001149460
      8        1           0.000508930   -0.000000000   -0.001487208
      9        1          -0.001499256   -0.000000000   -0.000943082
     10        1          -0.001972664   -0.000000000    0.000587717
     11        1           0.000400575   -0.000000000    0.001547194
     12        1           0.008591032   -0.000000000   -0.020288997
 -------------------------------------------------------------------
 Cartesian Forces:  Max     0.020288997 RMS     0.005873107
 Leave Link  716 at Fri Jun 28 18:57:55 2024, MaxMem=   33554432 cpu:       0.0
 (Enter /programs/64bit/g09/g09-gfortran/bin/l103.exe)

 GradGradGradGradGradGradGradGradGradGradGradGradGradGradGradGradGradGrad
 Berny optimization.
 Internal  Forces:  Max     0.023288647 RMS     0.004578720
 Search for a local minimum.
 Step number   1 out of a maximum of   64
 All quantities printed in internal units (Hartrees-Bohrs-Radians)
 RMS Force = .45787D-02 SwitMx=.10000D-02 MixMth= 1
 Mixed Optimization -- RFO/linear search
 Second derivative matrix not updated -- first step.
     Eigenvalues ---    0.02089   0.02089   0.02089   0.02089   0.02089
     Eigenvalues ---    0.02089   0.02089   0.02089   0.02089   0.16000
     Eigenvalues ---    0.16000   0.16000   0.16000   0.16000   0.16000
     Eigenvalues ---    0.22000   0.22000   0.22000   0.34928   0.34928
     Eigenvalues ---    0.34928   0.34928   0.34928   0.34928   0.41452
     Eigenvalues ---    0.41452   0.45621   0.45621   0.45621   0.45621
     Eigenvalues --- 1000.000001000.000001000.000001000.000001000.00000
     Eigenvalues --- 1000.000001000.000001000.000001000.000001000.00000
     Eigenvalues --- 1000.000001000.000001000.000001000.000001000.00000
     Eigenvalues --- 1000.000001000.000001000.000001000.000001000.00000
     Eigenvalues --- 1000.000001000.000001000.000001000.00000
 RFO step:  Lambda=-6.45025372D-03 EMin= 2.08875573D-02
 Linear search not attempted -- first point.
 Iteration  1 RMS(Cart)=  0.03577017 RMS(Int)=  0.00226374
 Iteration  2 RMS(Cart)=  0.00217020 RMS(Int)=  0.00000250
 Iteration  3 RMS(Cart)=  0.00000141 RMS(Int)=  0.00000224
 Iteration  4 RMS(Cart)=  0.00000000 RMS(Int)=  0.00000224
 ClnCor:  largest displacement from symmetrization is 2.48D-16 for atom    12.
 Variable       Old X    -DE/DX   Delta X   Delta X   Delta X     New X
                                 (Linear)    (Quad)   (Total)
    R1        2.64562   0.00476   0.00000   0.01060   0.01059   2.65621
    R2        2.64562  -0.00566   0.00000  -0.01225  -0.01224   2.63337
    R3        2.05791  -0.00134   0.00000  -0.00376  -0.00376   2.05415
    R4        2.64562  -0.00141   0.00000  -0.00271  -0.00271   2.64290
    R5        2.05791  -0.00199   0.00000  -0.00558  -0.00558   2.05233
    R6        2.64562  -0.00265   0.00000  -0.00570  -0.00571   2.63991
    R7        2.05791  -0.00149   0.00000  -0.00418  -0.00418   2.05373
    R8        2.64562  -0.00099   0.00000  -0.00245  -0.00244   2.64317
    R9        2.05791  -0.00177   0.00000  -0.00498  -0.00498   2.05294
   R10        2.64562  -0.00165   0.00000  -0.00389  -0.00389   2.64173
   R11        2.05791  -0.00200   0.00000  -0.00563  -0.00563   2.05228
   R12        2.05791  -0.00155   0.00000  -0.00435  -0.00435   2.05356
    A1        2.09440  -0.00132   0.00000  -0.00520  -0.00520   2.08919
    A2        1.91063   0.02329   0.00000   0.13856   0.13856   2.04920
    A3        2.27816  -0.02197   0.00000  -0.13336  -0.13336   2.14480
    A4        2.09440   0.00169   0.00000   0.00880   0.00879   2.10319
    A5        2.09440  -0.00103   0.00000  -0.00552  -0.00552   2.08887
    A6        2.09440  -0.00066   0.00000  -0.00327  -0.00327   2.09112
    A7        2.09440  -0.00203   0.00000  -0.00826  -0.00827   2.08613
    A8        2.09440   0.00154   0.00000   0.00727   0.00727   2.10166
    A9        2.09440   0.00050   0.00000   0.00099   0.00100   2.09539
   A10        2.09440  -0.00001   0.00000  -0.00066  -0.00066   2.09373
   A11        2.09440   0.00007   0.00000   0.00074   0.00074   2.09513
   A12        2.09440  -0.00006   0.00000  -0.00007  -0.00007   2.09432
   A13        2.09440   0.00229   0.00000   0.00879   0.00879   2.10319
   A14        2.09440  -0.00066   0.00000  -0.00145  -0.00145   2.09294
   A15        2.09440  -0.00164   0.00000  -0.00733  -0.00734   2.08706
   A16        2.09440  -0.00062   0.00000  -0.00346  -0.00345   2.09094
   A17        2.09440   0.00072   0.00000   0.00421   0.00421   2.09861
   A18        2.09440  -0.00010   0.00000  -0.00076  -0.00076   2.09364
    D1        0.00000  -0.00000   0.00000   0.00000   0.00000   0.00000
    D2        3.14159  -0.00000   0.00000   0.00000   0.00000   3.14159
    D3        3.14159  -0.00000   0.00000   0.00000   0.00000   3.14159
    D4        0.00000  -0.00000   0.00000   0.00000   0.00000   0.00000
    D5        0.00000  -0.00000   0.00000   0.00000   0.00000   0.00000
    D6        3.14159  -0.00000   0.00000   0.00000   0.00000   3.14159
    D7        3.14159  -0.00000   0.00000   0.00000   0.00000   3.14159
    D8        0.00000  -0.00000   0.00000   0.00000   0.00000   0.00000
    D9        0.00000  -0.00000   0.00000   0.00000   0.00000   0.00000
   D10        3.14159  -0.00000   0.00000   0.00000   0.00000   3.14159
   D11        3.14159  -0.00000   0.00000   0.00000   0.00000   3.14159
   D12        0.00000  -0.00000   0.00000   0.00000   0.00000   0.00000
   D13        0.00000  -0.00000   0.00000   0.00000   0.00000   0.00000
   D14        3.14159  -0.00000   0.00000   0.00000   0.00000   3.14159
   D15        3.14159  -0.00000   0.00000   0.00000   0.00000   3.14159
   D16        0.00000  -0.00000   0.00000   0.00000   0.00000   0.00000
   D17        0.00000  -0.00000   0.00000   0.00000   0.00000   0.00000
   D18        3.14159  -0.00000   0.00000   0.00000   0.00000   3.14159
   D19        3.14159  -0.00000   0.00000   0.00000   0.00000   3.14159
   D20        0.00000  -0.00000   0.00000   0.00000   0.00000   0.00000
   D21        0.00000  -0.00000   0.00000   0.00000   0.00000   0.00000
   D22        3.14159  -0.00000   0.00000   0.00000   0.00000   3.14159
   D23        3.14159  -0.00000   0.00000   0.00000   0.00000   3.14159
   D24        0.00000  -0.00000   0.00000   0.00000   0.00000   0.00000
         Item               Value     Threshold  Converged?
 Maximum Force            0.023289     0.000450     NO 
 RMS     Force            0.004579     0.000300     NO 
 Maximum Displacement     0.212256     0.001800     NO 
 RMS     Displacement     0.035762     0.001200     NO 
 Predicted change in Energy=-3.347298D-03
 GradGradGradGradGradGradGradGradGradGradGradGradGradGradGradGradGradGrad

 Leave Link  103 at Fri Jun 28 18:57:55 2024, MaxMem=   33554432 cpu:       0.0
 (Enter /programs/64bit/g09/g09-gfortran/bin/l202.exe)
                          Input orientation:                          
 ---------------------------------------------------------------------
 Center     Atomic      Atomic             Coordinates (Angstroms)
 Number     Number       Type             X           Y           Z
 ---------------------------------------------------------------------
      1          6           0       -0.008585    0.000000    0.014248
      2          6           0        0.007167    0.000000    1.419766
      3          6           0        1.220045    0.000000    2.116122
      4          6           0        2.422336    0.000000    1.404750
      5          6           0        2.406468    0.000000    0.006133
      6          6           0        1.194033    0.000000   -0.689746
      7          1           0       -0.930273    0.000000    1.968128
      8          1           0        1.230570    0.000000    3.202859
      9          1           0        3.369298    0.000000    1.937156
     10          1           0        3.341574    0.000000   -0.546152
     11          1           0        1.192085    0.000000   -1.776443
     12          1           0       -0.979109    0.000000   -0.475321
 ---------------------------------------------------------------------
                    Distance matrix (angstroms):
                    1          2          3          4          5
     1  C    0.000000
     2  C    1.405606   0.000000
     3  C    2.434626   1.398565   0.000000
     4  C    2.800513   2.415215   1.396980   0.000000
     5  C    2.415067   2.784781   2.420672   1.398707   0.000000
     6  C    1.393520   2.420474   2.805989   2.428094   1.397944
     7  H    2.160360   1.086045   2.155404   3.399614   3.870822
     8  H    3.420927   2.162437   1.086788   2.157198   3.406140
     9  H    3.886859   3.401708   2.156692   1.086367   2.157751
    10  H    3.396707   3.870802   3.404202   2.156622   1.086022
    11  H    2.155965   3.408780   3.892665   3.410792   2.156920
    12  H    1.087011   2.136374   3.398802   3.886450   3.419639
                    6          7          8          9         10
     6  C    0.000000
     7  H    3.402494   0.000000
     8  H    3.892776   2.488734   0.000000
     9  H    3.410629   4.299682   2.485189   0.000000
    10  H    2.152336   4.956842   4.302491   2.483463   0.000000
    11  H    1.086698   4.304208   4.979450   4.304773   2.476675
    12  H    2.183695   2.443937   4.290884   4.972795   4.321264
                   11         12
    11  H    0.000000
    12  H    2.531205   0.000000
 Stoichiometry    C6H6
 Framework group  CS[SG(C6H6)]
 Deg. of freedom    21
 Full point group                 CS      NOp   2
 Largest Abelian subgroup         CS      NOp   2
 Largest concise Abelian subgroup C1      NOp   1
                         Standard orientation:                         
 ---------------------------------------------------------------------
 Center     Atomic      Atomic             Coordinates (Angstroms)
 Number     Number       Type             X           Y           Z
 ---------------------------------------------------------------------
      1          6           0       -1.218814    0.692030    0.000000
      2          6           0        0.000000    1.392188    0.000000
      3          6           0        1.215796    0.700940    0.000000
      4          6           0        1.213498   -0.696038    0.000000
      5          6           0        0.000571   -1.392593    0.000000
      6          6           0       -1.214590   -0.701484    0.000000
      7          1           0       -0.003638    2.478227    0.000000
      8          1           0        2.157334    1.243724    0.000000
      9          1           0        2.153023   -1.241461    0.000000
     10          1           0       -0.000356   -2.478614    0.000000
     11          1           0       -2.151738   -1.251636    0.000000
     12          1           0       -2.133400    1.279503    0.000000
 ---------------------------------------------------------------------
 Rotational constants (GHZ):      5.7046677      5.6418809      2.8365503
 Leave Link  202 at Fri Jun 28 18:57:55 2024, MaxMem=   33554432 cpu:       0.0
 (Enter /programs/64bit/g09/g09-gfortran/bin/l301.exe)
 Standard basis: 6-31+G(d,p) (6D, 7F)
 Ernie: Thresh=  0.10000D-02 Tol=  0.10000D-05 Strict=F.
 There are   108 symmetry adapted basis functions of A'  symmetry.
 There are    36 symmetry adapted basis functions of A"  symmetry.
 Integral buffers will be    131072 words long.
 Raffenetti 2 integral format.
 Two-electron integral symmetry is turned on.
   144 basis functions,   234 primitive gaussians,   144 cartesian basis functions
    21 alpha electrons       21 beta electrons
       nuclear repulsion energy       202.9663152242 Hartrees.
 IExCor=  402 DFT=T Ex+Corr=B3LYP ExCW=0 ScaHFX=  0.200000
 ScaDFX=  0.800000  0.720000  1.000000  0.810000 ScalE2=  1.000000  1.000000
 IRadAn=      0 IRanWt=     -1 IRanGd=            0 ICorTp=0
 NAtoms=   12 NActive=   12 NUniq=   12 SFac= 7.50D-01 NAtFMM=   80 NAOKFM=F Big=F
 Leave Link  301 at Fri Jun 28 18:57:55 2024, MaxMem=   33554432 cpu:       0.0
 (Enter /programs/64bit/g09/g09-gfortran/bin/l302.exe)
 NPDir=0 NMtPBC=     1 NCelOv=     1 NCel=       1 NClECP=     1 NCelD=      1
         NCelK=      1 NCelE2=     1 NClLst=     1 CellRange=     0.0.
 One-electron integrals computed using PRISM.
 NBasis=   144 RedAO= T  NBF=   108    36
 NBsUse=   144 1.00D-06 NBFU=   108    36
 Precomputing XC quadrature grid using
 IXCGrd= 2 IRadAn=           0 IRanWt=          -1 IRanGd=           0 AccXCQ= 1.00D-10.
 NRdTot=     768 NPtTot=       97284 NUsed=      102829 NTot=      102861
 NSgBfM=   144   144   144   144   144 NAtAll=    12    12.
 Leave Link  302 at Fri Jun 28 18:57:55 2024, MaxMem=   33554432 cpu:       0.1
 (Enter /programs/64bit/g09/g09-gfortran/bin/l303.exe)
 DipDrv:  MaxL=1.
 Leave Link  303 at Fri Jun 28 18:57:55 2024, MaxMem=   33554432 cpu:       0.0
 (Enter /programs/64bit/g09/g09-gfortran/bin/l401.exe)
 Initial guess read from the read-write file.
 B after Tr=     0.000000    0.000000    0.000000
         Rot=    1.000000    0.000000    0.000000    0.000000 Ang=   0.00 deg.
 Guess basis will be translated and rotated to current coordinates.
 Initial guess orbital symmetries:
       Occupied  (A') (A') (A') (A') (A') (A') (A') (A') (A') (A')
                 (A') (A') (A') (A') (A') (A') (A") (A') (A') (A")
                 (A")
       Virtual   (A") (A") (A') (A') (A') (A') (A') (A") (A') (A')
                 (A") (A") (A') (A") (A") (A') (A") (A') (A') (A')
                 (A') (A') (A') (A") (A') (A') (A') (A') (A') (A')
                 (A') (A') (A') (A') (A') (A') (A') (A') (A') (A')
                 (A') (A") (A") (A") (A') (A') (A") (A") (A') (A')
                 (A") (A') (A') (A') (A') (A') (A') (A') (A') (A')
                 (A') (A') (A') (A') (A') (A") (A") (A') (A") (A")
                 (A") (A") (A') (A') (A') (A') (A') (A') (A') (A')
                 (A") (A") (A') (A') (A") (A') (A') (A") (A") (A')
                 (A") (A') (A") (A") (A') (A') (A') (A') (A') (A")
                 (A") (A') (A') (A") (A") (A') (A') (A') (A') (A')
                 (A') (A') (A') (A') (A') (A') (A') (A') (A') (A')
                 (A') (A') (A')
 The electronic state of the initial guess is 1-A'.
 Generating alternative initial guess.
 Harris functional with IExCor=  402 diagonalized for initial guess.
 ExpMin= 4.38D-02 ExpMax= 3.05D+03 ExpMxC= 4.57D+02 IAcc=2 IRadAn=         0 AccDes= 0.00D+00
 HarFok:  IExCor=  402 AccDes= 0.00D+00 IRadAn=         0 IDoV= 1
 ScaDFX=  1.000000  1.000000  1.000000  1.000000
 FoFCou: FMM=F IPFlag=           0 FMFlag=      100000 FMFlg1=           0
         NFxFlg=           0 DoJE=T BraDBF=F KetDBF=T FulRan=T
         Omega=  0.000000  0.000000  1.000000  0.000000  0.000000 ICntrl=     500 IOpCl=  0
         NMat0=    1 NMatS0=    1 NMatT0=    0 NMatD0=    1 NMtDS0=    0 NMtDT0=    0
         I1Cent=           4 NGrid=           0.
 Petite list used in FoFCou.
 Harris En= -232.311633589298    
 Leave Link  401 at Fri Jun 28 18:57:56 2024, MaxMem=   33554432 cpu:       1.7
 (Enter /programs/64bit/g09/g09-gfortran/bin/l502.exe)
 Closed shell SCF:
 Requested convergence on RMS density matrix=1.00D-08 within 128 cycles.
 Requested convergence on MAX density matrix=1.00D-06.
 Requested convergence on             energy=1.00D-06.
 No special actions if energy rises.
 Using DIIS extrapolation, IDIIS=  1040.
 Integral symmetry usage will be decided dynamically.
       102708 words used for storage of precomputed grid.
 IEnd=      185054 IEndB=      185054 NGot=    33554432 MDV=    33406899
 LenX=    33406899 LenY=    33385722
 Fock matrices will be formed incrementally for  20 cycles.

 Cycle   1  Pass 1  IDiag  1:
 FoFCou: FMM=F IPFlag=           0 FMFlag=      100000 FMFlg1=           0
         NFxFlg=           0 DoJE=F BraDBF=F KetDBF=F FulRan=T
         Omega=  0.000000  0.000000  1.000000  0.000000  0.000000 ICntrl=       0 IOpCl=  0
         NMat0=    1 NMatS0=    1 NMatT0=    0 NMatD0=    1 NMtDS0=    0 NMtDT0=    0
         I1Cent=           0 NGrid=           0.
 Petite list used in FoFCou.
 E= -226.298349489713    
 DIIS: error= 8.60D-02 at cycle   1 NSaved=   1.
 NSaved= 1 IEnMin= 1 EnMin= -226.298349489713     IErMin= 1 ErrMin= 8.60D-02
 ErrMax= 8.60D-02 EMaxC= 1.00D-01 BMatC= 1.55D+00 BMatP= 1.55D+00
 IDIUse=3 WtCom= 1.40D-01 WtEn= 8.60D-01
 Coeff-Com:  0.100D+01
 Coeff-En:   0.100D+01
 Coeff:      0.100D+01
 Recover alternate guess density for next cycle.
 RMSDP=2.90D-02 MaxDP=6.49D-01              OVMax= 0.00D+00

 Cycle   2  Pass 1  IDiag  1:
 RMSU=  1.40D-02    CP:  4.22D-01
 E= -232.105926492650     Delta-E=       -5.807577002937 Rises=F Damp=F
 DIIS: error= 3.27D-02 at cycle   2 NSaved=   2.
 NSaved= 2 IEnMin= 2 EnMin= -232.105926492650     IErMin= 2 ErrMin= 3.27D-02
 ErrMax= 3.27D-02 EMaxC= 1.00D-01 BMatC= 1.36D-01 BMatP= 1.55D+00
 IDIUse=3 WtCom= 6.73D-01 WtEn= 3.27D-01
 Coeff-Com:  0.508D-01 0.949D+00
 Coeff-En:   0.000D+00 0.100D+01
 Coeff:      0.342D-01 0.966D+00
 Gap=     0.024 Goal=   None    Shift=    0.000
 RMSDP=9.80D-03 MaxDP=1.03D-01 DE=-5.81D+00 OVMax= 7.52D-01

 Cycle   3  Pass 1  IDiag  1:
 RMSU=  6.73D-03    CP:  3.91D-01  8.97D-01
 E= -232.056989737071     Delta-E=        0.048936755579 Rises=F Damp=F
 DIIS: error= 4.64D-02 at cycle   3 NSaved=   3.
 NSaved= 3 IEnMin= 2 EnMin= -232.105926492650     IErMin= 2 ErrMin= 3.27D-02
 ErrMax= 4.64D-02 EMaxC= 1.00D-01 BMatC= 1.87D-01 BMatP= 1.36D-01
 IDIUse=2 WtCom= 0.00D+00 WtEn= 1.00D+00
 Coeff-En:   0.000D+00 0.566D+00 0.434D+00
 Coeff:      0.000D+00 0.566D+00 0.434D+00
 Gap=     0.259 Goal=   None    Shift=    0.000
 RMSDP=6.93D-03 MaxDP=1.39D-01 DE= 4.89D-02 OVMax= 1.03D-01

 Cycle   4  Pass 1  IDiag  1:
 RMSU=  2.32D-03    CP:  3.84D-01  8.96D-01  3.59D-01
 E= -232.267441840852     Delta-E=       -0.210452103782 Rises=F Damp=F
 DIIS: error= 2.51D-03 at cycle   4 NSaved=   4.
 NSaved= 4 IEnMin= 4 EnMin= -232.267441840852     IErMin= 4 ErrMin= 2.51D-03
 ErrMax= 2.51D-03 EMaxC= 1.00D-01 BMatC= 6.82D-04 BMatP= 1.36D-01
 IDIUse=3 WtCom= 9.75D-01 WtEn= 2.51D-02
 Coeff-Com: -0.280D-04 0.914D-01 0.702D-01 0.838D+00
 Coeff-En:   0.000D+00 0.000D+00 0.000D+00 0.100D+01
 Coeff:     -0.273D-04 0.891D-01 0.684D-01 0.842D+00
 Gap=     0.240 Goal=   None    Shift=    0.000
 RMSDP=1.06D-03 MaxDP=2.40D-02 DE=-2.10D-01 OVMax= 5.86D-03

 Cycle   5  Pass 1  IDiag  1:
 RMSU=  4.09D-04    CP:  3.91D-01  9.12D-01  3.60D-01  7.62D-01
 E= -232.268022689454     Delta-E=       -0.000580848602 Rises=F Damp=F
 DIIS: error= 5.80D-04 at cycle   5 NSaved=   5.
 NSaved= 5 IEnMin= 5 EnMin= -232.268022689454     IErMin= 5 ErrMin= 5.80D-04
 ErrMax= 5.80D-04 EMaxC= 1.00D-01 BMatC= 4.22D-05 BMatP= 6.82D-04
 IDIUse=3 WtCom= 9.94D-01 WtEn= 5.80D-03
 Coeff-Com:  0.452D-04 0.187D-02-0.131D-02 0.194D+00 0.805D+00
 Coeff-En:   0.000D+00 0.000D+00 0.000D+00 0.000D+00 0.100D+01
 Coeff:      0.450D-04 0.186D-02-0.130D-02 0.193D+00 0.806D+00
 Gap=     0.241 Goal=   None    Shift=    0.000
 RMSDP=2.22D-04 MaxDP=5.51D-03 DE=-5.81D-04 OVMax= 1.48D-03

 Cycle   6  Pass 1  IDiag  1:
 RMSU=  3.10D-05    CP:  3.89D-01  9.09D-01  3.60D-01  8.12D-01  8.13D-01
 E= -232.268055958691     Delta-E=       -0.000033269237 Rises=F Damp=F
 DIIS: error= 2.16D-04 at cycle   6 NSaved=   6.
 NSaved= 6 IEnMin= 6 EnMin= -232.268055958691     IErMin= 6 ErrMin= 2.16D-04
 ErrMax= 2.16D-04 EMaxC= 1.00D-01 BMatC= 4.70D-06 BMatP= 4.22D-05
 IDIUse=3 WtCom= 9.98D-01 WtEn= 2.16D-03
 Coeff-Com: -0.199D-04 0.459D-03-0.152D-02 0.998D-01 0.441D+00 0.460D+00
 Coeff-En:   0.000D+00 0.000D+00 0.000D+00 0.000D+00 0.000D+00 0.100D+01
 Coeff:     -0.199D-04 0.458D-03-0.151D-02 0.996D-01 0.440D+00 0.461D+00
 Gap=     0.241 Goal=   None    Shift=    0.000
 RMSDP=2.43D-05 MaxDP=5.67D-04 DE=-3.33D-05 OVMax= 9.95D-04

 Cycle   7  Pass 1  IDiag  1:
 RMSU=  1.29D-05    CP:  3.89D-01  9.09D-01  3.60D-01  8.14D-01  8.10D-01
                    CP:  6.67D-01
 E= -232.268060552085     Delta-E=       -0.000004593394 Rises=F Damp=F
 DIIS: error= 7.30D-05 at cycle   7 NSaved=   7.
 NSaved= 7 IEnMin= 7 EnMin= -232.268060552085     IErMin= 7 ErrMin= 7.30D-05
 ErrMax= 7.30D-05 EMaxC= 1.00D-01 BMatC= 3.07D-07 BMatP= 4.70D-06
 IDIUse=1 WtCom= 1.00D+00 WtEn= 0.00D+00
 Coeff-Com: -0.114D-04-0.177D-04-0.689D-03 0.142D-01 0.718D-01 0.214D+00
 Coeff-Com:  0.701D+00
 Coeff:     -0.114D-04-0.177D-04-0.689D-03 0.142D-01 0.718D-01 0.214D+00
 Coeff:      0.701D+00
 Gap=     0.241 Goal=   None    Shift=    0.000
 RMSDP=8.42D-06 MaxDP=2.01D-04 DE=-4.59D-06 OVMax= 3.38D-04

 Cycle   8  Pass 1  IDiag  1:
 RMSU=  3.15D-06    CP:  3.89D-01  9.09D-01  3.60D-01  8.15D-01  8.09D-01
                    CP:  7.46D-01  7.43D-01
 E= -232.268060825952     Delta-E=       -0.000000273867 Rises=F Damp=F
 DIIS: error= 3.55D-05 at cycle   8 NSaved=   8.
 NSaved= 8 IEnMin= 8 EnMin= -232.268060825952     IErMin= 8 ErrMin= 3.55D-05
 ErrMax= 3.55D-05 EMaxC= 1.00D-01 BMatC= 7.50D-08 BMatP= 3.07D-07
 IDIUse=1 WtCom= 1.00D+00 WtEn= 0.00D+00
 Coeff-Com: -0.156D-05-0.390D-04-0.353D-03 0.258D-02 0.176D-01 0.108D+00
 Coeff-Com:  0.453D+00 0.420D+00
 Coeff:     -0.156D-05-0.390D-04-0.353D-03 0.258D-02 0.176D-01 0.108D+00
 Coeff:      0.453D+00 0.420D+00
 Gap=     0.241 Goal=   None    Shift=    0.000
 RMSDP=2.73D-06 MaxDP=6.73D-05 DE=-2.74D-07 OVMax= 1.31D-04

 Cycle   9  Pass 1  IDiag  1:
 RMSU=  7.28D-07    CP:  3.89D-01  9.09D-01  3.60D-01  8.15D-01  8.09D-01
                    CP:  7.33D-01  7.98D-01  5.02D-01
 E= -232.268060909455     Delta-E=       -0.000000083503 Rises=F Damp=F
 DIIS: error= 1.51D-06 at cycle   9 NSaved=   9.
 NSaved= 9 IEnMin= 9 EnMin= -232.268060909455     IErMin= 9 ErrMin= 1.51D-06
 ErrMax= 1.51D-06 EMaxC= 1.00D-01 BMatC= 2.17D-10 BMatP= 7.50D-08
 IDIUse=1 WtCom= 1.00D+00 WtEn= 0.00D+00
 Coeff-Com:  0.320D-07-0.541D-05-0.717D-06-0.344D-03-0.103D-02 0.186D-03
 Coeff-Com:  0.960D-02 0.562D-01 0.935D+00
 Coeff:      0.320D-07-0.541D-05-0.717D-06-0.344D-03-0.103D-02 0.186D-03
 Coeff:      0.960D-02 0.562D-01 0.935D+00
 Gap=     0.241 Goal=   None    Shift=    0.000
 RMSDP=4.14D-07 MaxDP=1.11D-05 DE=-8.35D-08 OVMax= 5.75D-06

 Cycle  10  Pass 1  IDiag  1:
 RMSU=  9.03D-08    CP:  3.89D-01  9.09D-01  3.60D-01  8.15D-01  8.09D-01
                    CP:  7.33D-01  7.96D-01  5.21D-01  9.16D-01
 E= -232.268060909693     Delta-E=       -0.000000000238 Rises=F Damp=F
 DIIS: error= 1.19D-07 at cycle  10 NSaved=  10.
 NSaved=10 IEnMin=10 EnMin= -232.268060909693     IErMin=10 ErrMin= 1.19D-07
 ErrMax= 1.19D-07 EMaxC= 1.00D-01 BMatC= 1.88D-12 BMatP= 2.17D-10
 IDIUse=1 WtCom= 1.00D+00 WtEn= 0.00D+00
 Coeff-Com:  0.149D-07-0.204D-05 0.805D-06-0.707D-04-0.248D-03-0.172D-03
 Coeff-Com:  0.573D-03 0.869D-02 0.163D+00 0.828D+00
 Coeff:      0.149D-07-0.204D-05 0.805D-06-0.707D-04-0.248D-03-0.172D-03
 Coeff:      0.573D-03 0.869D-02 0.163D+00 0.828D+00
 Gap=     0.241 Goal=   None    Shift=    0.000
 RMSDP=2.78D-08 MaxDP=5.20D-07 DE=-2.38D-10 OVMax= 8.18D-07

 Cycle  11  Pass 1  IDiag  1:
 RMSU=  1.54D-08    CP:  3.89D-01  9.09D-01  3.60D-01  8.15D-01  8.09D-01
                    CP:  7.33D-01  7.96D-01  5.21D-01  9.22D-01  9.35D-01
 E= -232.268060909695     Delta-E=       -0.000000000002 Rises=F Damp=F
 DIIS: error= 1.14D-07 at cycle  11 NSaved=  11.
 NSaved=11 IEnMin=11 EnMin= -232.268060909695     IErMin=11 ErrMin= 1.14D-07
 ErrMax= 1.14D-07 EMaxC= 1.00D-01 BMatC= 1.39D-12 BMatP= 1.88D-12
 IDIUse=1 WtCom= 1.00D+00 WtEn= 0.00D+00
 Coeff-Com:  0.894D-08-0.900D-06 0.459D-06-0.158D-04-0.699D-04-0.991D-04
 Coeff-Com: -0.280D-03 0.934D-03 0.248D-01 0.489D+00 0.486D+00
 Coeff:      0.894D-08-0.900D-06 0.459D-06-0.158D-04-0.699D-04-0.991D-04
 Coeff:     -0.280D-03 0.934D-03 0.248D-01 0.489D+00 0.486D+00
 Gap=     0.241 Goal=   None    Shift=    0.000
 RMSDP=9.34D-09 MaxDP=2.56D-07 DE=-2.27D-12 OVMax= 4.07D-07

 SCF Done:  E(RB3LYP) =  -232.268060910     A.U. after   11 cycles
             Convg  =    0.9339D-08             -V/T =  2.0103
 KE= 2.299090872325D+02 PE=-9.428872002138D+02 EE= 2.777437368475D+02
 Leave Link  502 at Fri Jun 28 18:58:28 2024, MaxMem=   33554432 cpu:      31.5
 (Enter /programs/64bit/g09/g09-gfortran/bin/l701.exe)
 Compute integral first derivatives.
 ... and contract with generalized density number  0.
 Leave Link  701 at Fri Jun 28 18:58:28 2024, MaxMem=   33554432 cpu:       0.0
 (Enter /programs/64bit/g09/g09-gfortran/bin/l702.exe)
 L702 exits ... SP integral derivatives will be done elsewhere.
 Leave Link  702 at Fri Jun 28 18:58:28 2024, MaxMem=   33554432 cpu:       0.0
 (Enter /programs/64bit/g09/g09-gfortran/bin/l703.exe)
 Compute integral first derivatives, UseDBF=F ICtDFT=           0.
 Integral derivatives from FoFDir, PRISM(SPDF).
 Calling FoFJK, ICntrl=      2127 FMM=F ISym2X=1 I1Cent= 0 IOpClX= 0 NMat=1 NMatS=1 NMatT=0.
 FoFCou: FMM=F IPFlag=           0 FMFlag=      100000 FMFlg1=         800
         NFxFlg=           0 DoJE=F BraDBF=F KetDBF=F FulRan=T
         Omega=  0.000000  0.000000  1.000000  0.000000  0.000000 ICntrl=    2127 IOpCl=  0
         NMat0=    1 NMatS0=    1 NMatT0=    0 NMatD0=    1 NMtDS0=    0 NMtDT0=    0
         I1Cent=           0 NGrid=           0.
 Petite list used in FoFCou.
 Leave Link  703 at Fri Jun 28 18:58:36 2024, MaxMem=   33554432 cpu:       7.8
 (Enter /programs/64bit/g09/g09-gfortran/bin/l716.exe)
 Dipole        = 3.36285699D-03 3.72486058D-03 2.72031523D-35
 ***** Axes restored to original set *****
 -------------------------------------------------------------------
 Center     Atomic                   Forces (Hartrees/Bohr)
 Number     Number              X              Y              Z
 -------------------------------------------------------------------
      1        6          -0.004617255   -0.000000000    0.012171200
      2        6           0.000779079    0.000000000   -0.002344022
      3        6          -0.001431974    0.000000000   -0.001373506
      4        6           0.001020170    0.000000000   -0.001328777
      5        6           0.001775451   -0.000000000    0.000182837
      6        6          -0.000139030    0.000000000   -0.002663096
      7        1          -0.000382751    0.000000000    0.000017907
      8        1          -0.000467892    0.000000000   -0.000334269
      9        1           0.000156422    0.000000000   -0.000179189
     10        1           0.000460597   -0.000000000    0.000081856
     11        1           0.000068808   -0.000000000    0.000128709
     12        1           0.002778374    0.000000000   -0.004359650
 -------------------------------------------------------------------
 Cartesian Forces:  Max     0.012171200 RMS     0.002472623
 Leave Link  716 at Fri Jun 28 18:58:36 2024, MaxMem=   33554432 cpu:       0.0
 (Enter /programs/64bit/g09/g09-gfortran/bin/l103.exe)

 GradGradGradGradGradGradGradGradGradGradGradGradGradGradGradGradGradGrad
 Berny optimization.
 Using GEDIIS/GDIIS optimizer.
 Internal  Forces:  Max     0.005824843 RMS     0.001384976
 Search for a local minimum.
 Step number   2 out of a maximum of   64
 All quantities printed in internal units (Hartrees-Bohrs-Radians)
 RMS Force = .13850D-02 SwitMx=.10000D-02 MixMth= 1
 Mixed Optimization -- RFO/linear search
 Update second derivatives using D2CorX and points    1    2
 DE= -3.85D-03 DEPred=-3.35D-03 R= 1.15D+00
 SS=  1.41D+00  RLast= 1.95D-01 DXNew= 5.0454D-01 5.8387D-01
 Trust test= 1.15D+00 RLast= 1.95D-01 DXMaxT set to 5.05D-01
 Use linear search instead of GDIIS.
     Eigenvalues ---    0.02089   0.02089   0.02089   0.02089   0.02089
     Eigenvalues ---    0.02089   0.02089   0.02089   0.02089   0.11925
     Eigenvalues ---    0.16000   0.16000   0.16000   0.16000   0.16069
     Eigenvalues ---    0.22000   0.22000   0.22993   0.34902   0.34928
     Eigenvalues ---    0.34928   0.34928   0.34928   0.35017   0.41487
     Eigenvalues ---    0.41755   0.45562   0.45621   0.45621   0.48220
     Eigenvalues --- 1000.000001000.000001000.000001000.000001000.00000
     Eigenvalues --- 1000.000001000.000001000.000001000.000001000.00000
     Eigenvalues --- 1000.000001000.000001000.000001000.000001000.00000
     Eigenvalues --- 1000.000001000.000001000.000001000.000001000.00000
     Eigenvalues --- 1000.000001000.000001000.000001000.00000
 RFO step:  Lambda=-3.50003128D-04 EMin= 2.08875573D-02
 Quartic linear search produced a step of  0.24866.
 Iteration  1 RMS(Cart)=  0.01140867 RMS(Int)=  0.00029219
 Iteration  2 RMS(Cart)=  0.00028680 RMS(Int)=  0.00000221
 Iteration  3 RMS(Cart)=  0.00000000 RMS(Int)=  0.00000221
 ClnCor:  largest displacement from symmetrization is 7.57D-11 for atom    11.
 Variable       Old X    -DE/DX   Delta X   Delta X   Delta X     New X
                                 (Linear)    (Quad)   (Total)
    R1        2.65621  -0.00435   0.00263  -0.01433  -0.01170   2.64451
    R2        2.63337   0.00277  -0.00304   0.01000   0.00695   2.64033
    R3        2.05415  -0.00052  -0.00093  -0.00110  -0.00203   2.05212
    R4        2.64290  -0.00080  -0.00067  -0.00197  -0.00264   2.64026
    R5        2.05233   0.00034  -0.00139   0.00232   0.00093   2.05326
    R6        2.63991   0.00202  -0.00142   0.00665   0.00523   2.64514
    R7        2.05373  -0.00034  -0.00104  -0.00038  -0.00142   2.05231
    R8        2.64317  -0.00119  -0.00061  -0.00244  -0.00305   2.64012
    R9        2.05294   0.00005  -0.00124   0.00116  -0.00008   2.05286
   R10        2.64173   0.00064  -0.00097   0.00284   0.00188   2.64361
   R11        2.05228   0.00035  -0.00140   0.00239   0.00099   2.05327
   R12        2.05356  -0.00013  -0.00108   0.00040  -0.00068   2.05288
    A1        2.08919   0.00108  -0.00129   0.00648   0.00518   2.09438
    A2        2.04920   0.00474   0.03445   0.01036   0.04482   2.09402
    A3        2.14480  -0.00582  -0.03316  -0.01684  -0.05000   2.09479
    A4        2.10319  -0.00133   0.00219  -0.01066  -0.00848   2.09470
    A5        2.08887   0.00048  -0.00137   0.00414   0.00277   2.09164
    A6        2.09112   0.00085  -0.00081   0.00652   0.00571   2.09684
    A7        2.08613   0.00156  -0.00206   0.00983   0.00777   2.09390
    A8        2.10166  -0.00126   0.00181  -0.00926  -0.00745   2.09421
    A9        2.09539  -0.00030   0.00025  -0.00057  -0.00032   2.09508
   A10        2.09373  -0.00003  -0.00017   0.00068   0.00051   2.09425
   A11        2.09513   0.00025   0.00018   0.00144   0.00162   2.09676
   A12        2.09432  -0.00022  -0.00002  -0.00212  -0.00214   2.09218
   A13        2.10319  -0.00176   0.00219  -0.01042  -0.00822   2.09497
   A14        2.09294   0.00057  -0.00036   0.00218   0.00181   2.09475
   A15        2.08706   0.00119  -0.00182   0.00824   0.00641   2.09347
   A16        2.09094   0.00049  -0.00086   0.00409   0.00324   2.09418
   A17        2.09861  -0.00017   0.00105  -0.00200  -0.00096   2.09765
   A18        2.09364  -0.00031  -0.00019  -0.00209  -0.00228   2.09135
    D1        0.00000  -0.00000   0.00000  -0.00000   0.00000   0.00000
    D2        3.14159  -0.00000   0.00000  -0.00000   0.00000   3.14159
    D3        3.14159   0.00000   0.00000   0.00000   0.00000   3.14159
    D4       -0.00000   0.00000   0.00000  -0.00000   0.00000   0.00000
    D5        0.00000   0.00000   0.00000   0.00000  -0.00000   0.00000
    D6        3.14159  -0.00000   0.00000   0.00000   0.00000   3.14159
    D7        3.14159   0.00000   0.00000   0.00000   0.00000   3.14159
    D8        0.00000   0.00000   0.00000   0.00000   0.00000   0.00000
    D9       -0.00000  -0.00000   0.00000  -0.00000   0.00000   0.00000
   D10        3.14159   0.00000   0.00000   0.00000   0.00000   3.14159
   D11        3.14159   0.00000   0.00000  -0.00000   0.00000   3.14159
   D12        0.00000   0.00000   0.00000   0.00000   0.00000   0.00000
   D13        0.00000  -0.00000   0.00000   0.00000  -0.00000   0.00000
   D14        3.14159  -0.00000   0.00000   0.00000   0.00000   3.14159
   D15        3.14159  -0.00000   0.00000  -0.00000   0.00000   3.14159
   D16       -0.00000  -0.00000   0.00000  -0.00000   0.00000   0.00000
   D17       -0.00000  -0.00000   0.00000  -0.00000   0.00000   0.00000
   D18        3.14159  -0.00000   0.00000  -0.00000   0.00000   3.14159
   D19        3.14159  -0.00000   0.00000   0.00000   0.00000   3.14159
   D20       -0.00000  -0.00000   0.00000   0.00000   0.00000   0.00000
   D21       -0.00000   0.00000   0.00000   0.00000   0.00000   0.00000
   D22        3.14159  -0.00000   0.00000   0.00000   0.00000   3.14159
   D23        3.14159   0.00000   0.00000  -0.00000   0.00000   3.14159
   D24        0.00000   0.00000   0.00000  -0.00000  -0.00000   0.00000
         Item               Value     Threshold  Converged?
 Maximum Force            0.005825     0.000450     NO 
 RMS     Force            0.001385     0.000300     NO 
 Maximum Displacement     0.055144     0.001800     NO 
 RMS     Displacement     0.011430     0.001200     NO 
 Predicted change in Energy=-3.303899D-04
 GradGradGradGradGradGradGradGradGradGradGradGradGradGradGradGradGradGrad

 Leave Link  103 at Fri Jun 28 18:58:36 2024, MaxMem=   33554432 cpu:       0.0
 (Enter /programs/64bit/g09/g09-gfortran/bin/l202.exe)
                          Input orientation:                          
 ---------------------------------------------------------------------
 Center     Atomic      Atomic             Coordinates (Angstroms)
 Number     Number       Type             X           Y           Z
 ---------------------------------------------------------------------
      1          6           0       -0.012424    0.000000    0.028355
      2          6           0        0.002044   -0.000000    1.427694
      3          6           0        1.218971   -0.000000    2.114105
      4          6           0        2.423755   -0.000000    1.401508
      5          6           0        2.408838    0.000000    0.004494
      6          6           0        1.190313    0.000000   -0.682695
      7          1           0       -0.934776   -0.000000    1.978088
      8          1           0        1.229665   -0.000000    3.200089
      9          1           0        3.371464   -0.000000    1.932501
     10          1           0        3.343759    0.000000   -0.549129
     11          1           0        1.182638    0.000000   -1.769008
     12          1           0       -0.958637    0.000000   -0.504502
 ---------------------------------------------------------------------
                    Distance matrix (angstroms):
                    1          2          3          4          5
     1  C    0.000000
     2  C    1.399414   0.000000
     3  C    2.422124   1.397165   0.000000
     4  C    2.796518   2.421852   1.399749   0.000000
     5  C    2.421379   2.796096   2.422032   1.397094   0.000000
     6  C    1.397201   2.421926   2.796946   2.421833   1.398939
     7  H    2.156894   1.086539   2.158038   3.407664   3.882632
     8  H    3.406271   2.156023   1.086037   2.158876   3.406212
     9  H    3.882843   3.407025   2.160140   1.086327   2.154962
    10  H    3.405504   3.882639   3.406984   2.156708   1.086543
    11  H    2.158399   3.407742   3.883282   3.404781   2.156124
    12  H    1.085935   2.157843   3.405741   3.882453   3.405724
                    6          7          8          9         10
     6  C    0.000000
     7  H    3.405256   0.000000
     8  H    3.882983   2.485576   0.000000
     9  H    3.405388   4.306481   2.488791   0.000000
    10  H    2.157584   4.969174   4.304188   2.481785   0.000000
    11  H    1.086340   4.303971   4.969319   4.300247   2.481642
    12  H    2.156325   2.482704   4.302633   4.968778   4.302627
                   11         12
    11  H    0.000000
    12  H    2.486772   0.000000
 Stoichiometry    C6H6
 Framework group  CS[SG(C6H6)]
 Deg. of freedom    21
 Full point group                 CS      NOp   2
 Largest Abelian subgroup         CS      NOp   2
 Largest concise Abelian subgroup C1      NOp   1
                         Standard orientation:                         
 ---------------------------------------------------------------------
 Center     Atomic      Atomic             Coordinates (Angstroms)
 Number     Number       Type             X           Y           Z
 ---------------------------------------------------------------------
      1          6           0        1.210939   -0.699001   -0.000000
      2          6           0       -0.001244   -1.398265   -0.000000
      3          6           0       -1.211185   -0.699614    0.000000
      4          6           0       -1.210410    0.700135    0.000000
      5          6           0       -0.000000    1.397830    0.000000
      6          6           0        1.211423    0.698199   -0.000000
      7          1           0        0.001347   -2.484801   -0.000000
      8          1           0       -2.151651   -1.242752    0.000000
      9          1           0       -2.149610    1.246038    0.000000
     10          1           0        0.001154    2.484373    0.000000
     11          1           0        2.150637    1.244103   -0.000000
     12          1           0        2.150982   -1.242669   -0.000000
 ---------------------------------------------------------------------
 Rotational constants (GHZ):      5.6761952      5.6744435      2.8376596
 Leave Link  202 at Fri Jun 28 18:58:36 2024, MaxMem=   33554432 cpu:       0.0
 (Enter /programs/64bit/g09/g09-gfortran/bin/l301.exe)
 Standard basis: 6-31+G(d,p) (6D, 7F)
 Ernie: Thresh=  0.10000D-02 Tol=  0.10000D-05 Strict=F.
 There are   108 symmetry adapted basis functions of A'  symmetry.
 There are    36 symmetry adapted basis functions of A"  symmetry.
 Integral buffers will be    131072 words long.
 Raffenetti 2 integral format.
 Two-electron integral symmetry is turned on.
   144 basis functions,   234 primitive gaussians,   144 cartesian basis functions
    21 alpha electrons       21 beta electrons
       nuclear repulsion energy       203.0043209810 Hartrees.
 IExCor=  402 DFT=T Ex+Corr=B3LYP ExCW=0 ScaHFX=  0.200000
 ScaDFX=  0.800000  0.720000  1.000000  0.810000 ScalE2=  1.000000  1.000000
 IRadAn=      0 IRanWt=     -1 IRanGd=            0 ICorTp=0
 NAtoms=   12 NActive=   12 NUniq=   12 SFac= 7.50D-01 NAtFMM=   80 NAOKFM=F Big=F
 Leave Link  301 at Fri Jun 28 18:58:36 2024, MaxMem=   33554432 cpu:       0.0
 (Enter /programs/64bit/g09/g09-gfortran/bin/l302.exe)
 NPDir=0 NMtPBC=     1 NCelOv=     1 NCel=       1 NClECP=     1 NCelD=      1
         NCelK=      1 NCelE2=     1 NClLst=     1 CellRange=     0.0.
 One-electron integrals computed using PRISM.
 NBasis=   144 RedAO= T  NBF=   108    36
 NBsUse=   144 1.00D-06 NBFU=   108    36
 Precomputing XC quadrature grid using
 IXCGrd= 2 IRadAn=           0 IRanWt=          -1 IRanGd=           0 AccXCQ= 1.00D-10.
 NRdTot=     768 NPtTot=       97284 NUsed=      102829 NTot=      102861
 NSgBfM=   144   144   144   144   144 NAtAll=    12    12.
 Leave Link  302 at Fri Jun 28 18:58:36 2024, MaxMem=   33554432 cpu:       0.1
 (Enter /programs/64bit/g09/g09-gfortran/bin/l303.exe)
 DipDrv:  MaxL=1.
 Leave Link  303 at Fri Jun 28 18:58:36 2024, MaxMem=   33554432 cpu:       0.0
 (Enter /programs/64bit/g09/g09-gfortran/bin/l401.exe)
[...]
 RMS     Force            0.000085     0.000300     YES
 Maximum Displacement     0.001059     0.001800     YES
 RMS     Displacement     0.000363     0.001200     YES
 Predicted change in Energy=-7.906302D-07
 Optimization completed.
    -- Stationary point found.
                           ----------------------------
                           !   Optimized Parameters   !
                           ! (Angstroms and Degrees)  !
 --------------------------                            --------------------------
 ! Name  Definition              Value          Derivative Info.                !
 --------------------------------------------------------------------------------
 ! R1    R(1,2)                  1.3988         -DE/DX =   -0.0002              !
 ! R2    R(1,6)                  1.3978         -DE/DX =    0.0003              !
 ! R3    R(1,12)                 1.0864         -DE/DX =    0.0                 !
 ! R4    R(2,3)                  1.3978         -DE/DX =    0.0002              !
 ! R5    R(2,7)                  1.0864         -DE/DX =    0.0                 !
 ! R6    R(3,4)                  1.3987         -DE/DX =   -0.0002              !
 ! R7    R(3,8)                  1.0864         -DE/DX =    0.0                 !
 ! R8    R(4,5)                  1.3979         -DE/DX =    0.0002              !
 ! R9    R(4,9)                  1.0864         -DE/DX =    0.0                 !
 ! R10   R(5,6)                  1.3989         -DE/DX =   -0.0003              !
 ! R11   R(5,10)                 1.0864         -DE/DX =    0.0                 !
 ! R12   R(6,11)                 1.0864         -DE/DX =    0.0                 !
 ! A1    A(2,1,6)              119.9933         -DE/DX =    0.0                 !
 ! A2    A(2,1,12)             120.0072         -DE/DX =   -0.0001              !
 ! A3    A(6,1,12)             119.9995         -DE/DX =    0.0                 !
 ! A4    A(1,2,3)              120.0189         -DE/DX =   -0.0001              !
 ! A5    A(1,2,7)              119.9346         -DE/DX =    0.0001              !
 ! A6    A(3,2,7)              120.0466         -DE/DX =   -0.0001              !
 ! A7    A(2,3,4)              119.9915         -DE/DX =    0.0                 !
 ! A8    A(2,3,8)              120.0155         -DE/DX =    0.0                 !
 ! A9    A(4,3,8)              119.993          -DE/DX =    0.0                 !
 ! A10   A(3,4,5)              119.9937         -DE/DX =    0.0                 !
 ! A11   A(3,4,9)              120.0125         -DE/DX =    0.0                 !
 ! A12   A(5,4,9)              119.9937         -DE/DX =    0.0                 !
 ! A13   A(4,5,6)              120.0141         -DE/DX =   -0.0001              !
 ! A14   A(4,5,10)             120.0128         -DE/DX =    0.0                 !
 ! A15   A(6,5,10)             119.9731         -DE/DX =    0.0                 !
 ! A16   A(1,6,5)              119.9885         -DE/DX =    0.0                 !
 ! A17   A(1,6,11)             120.0654         -DE/DX =   -0.0001              !
 ! A18   A(5,6,11)             119.9462         -DE/DX =    0.0001              !
 ! D1    D(6,1,2,3)              0.0            -DE/DX =    0.0                 !
 ! D2    D(6,1,2,7)            180.0            -DE/DX =    0.0                 !
 ! D3    D(12,1,2,3)           180.0            -DE/DX =    0.0                 !
 ! D4    D(12,1,2,7)             0.0            -DE/DX =    0.0                 !
 ! D5    D(2,1,6,5)              0.0            -DE/DX =    0.0                 !
 ! D6    D(2,1,6,11)           180.0            -DE/DX =    0.0                 !
 ! D7    D(12,1,6,5)           180.0            -DE/DX =    0.0                 !
 ! D8    D(12,1,6,11)            0.0            -DE/DX =    0.0                 !
 ! D9    D(1,2,3,4)              0.0            -DE/DX =    0.0                 !
 ! D10   D(1,2,3,8)            180.0            -DE/DX =    0.0                 !
 ! D11   D(7,2,3,4)            180.0            -DE/DX =    0.0                 !
 ! D12   D(7,2,3,8)              0.0            -DE/DX =    0.0                 !
 ! D13   D(2,3,4,5)              0.0            -DE/DX =    0.0                 !
 ! D14   D(2,3,4,9)            180.0            -DE/DX =    0.0                 !
 ! D15   D(8,3,4,5)            180.0            -DE/DX =    0.0                 !
 ! D16   D(8,3,4,9)              0.0            -DE/DX =    0.0                 !
 ! D17   D(3,4,5,6)              0.0            -DE/DX =    0.0                 !
 ! D18   D(3,4,5,10)           180.0            -DE/DX =    0.0                 !
 ! D19   D(9,4,5,6)            180.0            -DE/DX =    0.0                 !
 ! D20   D(9,4,5,10)             0.0            -DE/DX =    0.0                 !
 ! D21   D(4,5,6,1)              0.0            -DE/DX =    0.0                 !
 ! D22   D(4,5,6,11)           180.0            -DE/DX =    0.0                 !
 ! D23   D(10,5,6,1)           180.0            -DE/DX =    0.0                 !
 ! D24   D(10,5,6,11)            0.0            -DE/DX =    0.0                 !
 --------------------------------------------------------------------------------
 GradGradGradGradGradGradGradGradGradGradGradGradGradGradGradGradGradGrad

 Largest change from initial coordinates is atom   11       2.311 Angstoms.
 Leave Link  103 at Fri Jun 28 18:59:58 2024, MaxMem=   33554432 cpu:       0.0
 (Enter /programs/64bit/g09/g09-gfortran/bin/l202.exe)
                          Input orientation:                          
 ---------------------------------------------------------------------
 Center     Atomic      Atomic             Coordinates (Angstroms)
 Number     Number       Type             X           Y           Z
 ---------------------------------------------------------------------
      1          6           0       -0.012594    0.000000    0.028195
      2          6           0        0.001983    0.000000    1.426936
      3          6           0        1.219540   -0.000000    2.113603
      4          6           0        2.423648   -0.000000    1.401873
      5          6           0        2.409181   -0.000000    0.004005
      6          6           0        1.190706    0.000000   -0.683162
      7          1           0       -0.933810    0.000000    1.978857
      8          1           0        1.230798   -0.000000    3.199964
      9          1           0        3.370148   -0.000000    1.935215
     10          1           0        3.344270   -0.000000   -0.549133
     11          1           0        1.180751    0.000000   -1.769549
     12          1           0       -0.959011    0.000000   -0.505304
 ---------------------------------------------------------------------
                    Distance matrix (angstroms):
                    1          2          3          4          5
     1  C    0.000000
     2  C    1.398816   0.000000
     3  C    2.422206   1.397841   0.000000
     4  C    2.796832   2.421795   1.398727   0.000000
     5  C    2.421896   2.796307   2.421911   1.397943   0.000000
     6  C    1.397842   2.421895   2.796914   2.422296   1.398885
     7  H    2.157248   1.086427   2.157562   3.406675   3.882734
     8  H    3.406778   2.157224   1.086419   2.157782   3.406280
     9  H    3.883255   3.406300   2.157993   1.086423   2.157088
    10  H    3.406148   3.882748   3.406559   2.157306   1.086441
    11  H    2.157767   3.406906   3.883346   3.406275   2.157436
    12  H    1.086428   2.158022   3.406576   3.883260   3.406481
                    6          7          8          9         10
     6  C    0.000000
     7  H    3.405865   0.000000
     8  H    3.883333   2.485282   0.000000
     9  H    3.406738   4.304179   2.485238   0.000000
    10  H    2.157730   4.969175   4.303776   2.484482   0.000000
    11  H    1.086432   4.303709   4.969765   4.303340   2.483995
    12  H    2.157063   2.484289   4.303983   4.969683   4.303504
                   11         12
    11  H    0.000000
    12  H    2.485336   0.000000
 Stoichiometry    C6H6
 Framework group  CS[SG(C6H6)]
 Deg. of freedom    21
 Full point group                 CS      NOp   2
 Largest Abelian subgroup         CS      NOp   2
 Largest concise Abelian subgroup C1      NOp   1
                         Standard orientation:                         
 ---------------------------------------------------------------------
 Center     Atomic      Atomic             Coordinates (Angstroms)
 Number     Number       Type             X           Y           Z
 ---------------------------------------------------------------------
      1          6           0        1.211370    0.698675   -0.000000
      2          6           0       -0.000000    1.398154   -0.000000
      3          6           0       -1.210836    0.699702   -0.000000
      4          6           0       -1.211172   -0.699024    0.000000
      5          6           0       -0.000608   -1.398154    0.000000
      6          6           0        1.211124   -0.699167    0.000000
      7          1           0        0.001304    2.484580   -0.000000
      8          1           0       -2.151639    1.243022   -0.000000
      9          1           0       -2.152053   -1.242216    0.000000
     10          1           0       -0.000507   -2.484594    0.000000
     11          1           0        2.151286   -1.243621    0.000000
     12          1           0        2.152344    1.241715   -0.000000
 ---------------------------------------------------------------------
 Rotational constants (GHZ):      5.6754650      5.6736908      2.8372889
 Leave Link  202 at Fri Jun 28 18:59:58 2024, MaxMem=   33554432 cpu:       0.0
 (Enter /programs/64bit/g09/g09-gfortran/bin/l601.exe)
 Copying SCF densities to generalized density rwf, IOpCl= 0 IROHF=0.

 **********************************************************************

            Population analysis using the SCF density.

 **********************************************************************

 Orbital symmetries:
       Occupied  (A') (A') (A') (A') (A') (A') (A') (A') (A') (A')
                 (A') (A') (A') (A') (A') (A') (A") (A') (A') (A")
                 (A")
       Virtual   (A") (A") (A') (A') (A') (A') (A') (A") (A') (A')
                 (A") (A") (A') (A") (A") (A") (A') (A') (A') (A')
                 (A') (A') (A') (A") (A') (A') (A') (A') (A') (A')
                 (A') (A') (A') (A') (A') (A') (A') (A') (A') (A')
                 (A') (A") (A") (A") (A') (A') (A") (A") (A') (A')
                 (A") (A') (A') (A') (A') (A') (A') (A') (A') (A')
                 (A') (A') (A') (A') (A') (A") (A") (A') (A") (A")
                 (A") (A") (A') (A') (A') (A') (A') (A') (A') (A')
                 (A") (A") (A') (A') (A") (A') (A') (A") (A") (A")
                 (A') (A') (A') (A") (A") (A') (A') (A') (A') (A")
                 (A") (A') (A') (A") (A") (A') (A') (A') (A') (A')
                 (A') (A') (A') (A') (A') (A') (A') (A') (A') (A')
                 (A') (A') (A')
 The electronic state is 1-A'.
 Alpha  occ. eigenvalues --  -10.19881 -10.19855 -10.19855 -10.19800 -10.19799
 Alpha  occ. eigenvalues --  -10.19773  -0.85701  -0.74993  -0.74989  -0.60672
 Alpha  occ. eigenvalues --   -0.60669  -0.52661  -0.46649  -0.44880  -0.42583
 Alpha  occ. eigenvalues --   -0.42575  -0.36975  -0.34895  -0.34894  -0.25765
 Alpha  occ. eigenvalues --   -0.25761
 Alpha virt. eigenvalues --   -0.01548  -0.01547   0.00845   0.02563   0.02563
 Alpha virt. eigenvalues --    0.04540   0.04541   0.06650   0.07779   0.07948
 Alpha virt. eigenvalues --    0.09188   0.09212   0.09904   0.12484   0.14268
 Alpha virt. eigenvalues --    0.14281   0.14408   0.14412   0.15494   0.15526
 Alpha virt. eigenvalues --    0.19634   0.19637   0.19666   0.20492   0.21134
 Alpha virt. eigenvalues --    0.21150   0.23529   0.24450   0.24453   0.26617
 Alpha virt. eigenvalues --    0.27931   0.27936   0.32539   0.34707   0.34708
 Alpha virt. eigenvalues --    0.34832   0.34840   0.56235   0.56780   0.60126
 Alpha virt. eigenvalues --    0.61982   0.65866   0.71698   0.71700   0.71842
 Alpha virt. eigenvalues --    0.71852   0.74615   0.74616   0.76636   0.76646
 Alpha virt. eigenvalues --    0.80010   0.82620   0.88149   0.91385   0.91386
 Alpha virt. eigenvalues --    0.94901   0.94909   0.97561   1.02266   1.07041
 Alpha virt. eigenvalues --    1.07048   1.12174   1.12180   1.16609   1.16610
 Alpha virt. eigenvalues --    1.25078   1.29494   1.30996   1.39682   1.39693
 Alpha virt. eigenvalues --    1.41837   1.41841   1.43105   1.43121   1.74184
 Alpha virt. eigenvalues --    1.78405   1.84404   1.88695   1.94199   1.94210
 Alpha virt. eigenvalues --    1.98017   1.98024   2.00232   2.00234   2.02642
 Alpha virt. eigenvalues --    2.07264   2.07286   2.28832   2.28844   2.36320
 Alpha virt. eigenvalues --    2.37532   2.37543   2.40348   2.40685   2.40694
 Alpha virt. eigenvalues --    2.46992   2.47009   2.51302   2.51307   2.59082
 Alpha virt. eigenvalues --    2.59097   2.60480   2.61747   2.64304   2.76127
 Alpha virt. eigenvalues --    2.81097   2.81109   3.04913   3.04916   3.18228
 Alpha virt. eigenvalues --    3.25442   3.27425   3.27432   3.38229   3.52055
 Alpha virt. eigenvalues --    3.52084   3.94521   4.27243   4.28600   4.28609
 Alpha virt. eigenvalues --    4.48539   4.48546   4.85010
          Condensed to atoms (all electrons):
              1          2          3          4          5          6
     1  C    4.932805   0.495934  -0.019926  -0.069024  -0.020073   0.496675
     2  C    0.495934   4.933179   0.496658  -0.019850  -0.069054  -0.019985
     3  C   -0.019926   0.496658   4.932529   0.496181  -0.019964  -0.069030
     4  C   -0.069024  -0.019850   0.496181   4.932785   0.496470  -0.020166
     5  C   -0.020073  -0.069054  -0.019964   0.496470   4.933567   0.495854
     6  C    0.496675  -0.019985  -0.069030  -0.020166   0.495854   4.933007
     7  H    0.021655   0.257667   0.021659   0.003799  -0.001112   0.003866
     8  H    0.003846   0.021747   0.257625   0.021606   0.003840  -0.001125
     9  H   -0.001108   0.003810   0.021566   0.257549   0.021845   0.003872
    10  H    0.003838  -0.001083   0.003830   0.021750   0.257523   0.021667
    11  H    0.021718   0.003809  -0.001094   0.003880   0.021747   0.257467
    12  H    0.257530   0.021661   0.003818  -0.001105   0.003861   0.021769
              7          8          9         10         11         12
     1  C    0.021655   0.003846  -0.001108   0.003838   0.021718   0.257530
     2  C    0.257667   0.021747   0.003810  -0.001083   0.003809   0.021661
     3  C    0.021659   0.257625   0.021566   0.003830  -0.001094   0.003818
     4  C    0.003799   0.021606   0.257549   0.021750   0.003880  -0.001105
     5  C   -0.001112   0.003840   0.021845   0.257523   0.021747   0.003861
     6  C    0.003866  -0.001125   0.003872   0.021667   0.257467   0.021769
     7  H    0.580904  -0.006102  -0.000159   0.000014  -0.000160  -0.006110
     8  H   -0.006102   0.580870  -0.006095  -0.000160   0.000014  -0.000159
     9  H   -0.000159  -0.006095   0.580900  -0.006112  -0.000160   0.000014
    10  H    0.000014  -0.000160  -0.006112   0.580944  -0.006112  -0.000160
    11  H   -0.000160   0.000014  -0.000160  -0.006112   0.580918  -0.006098
    12  H   -0.006110  -0.000159   0.000014  -0.000160  -0.006098   0.580903
 Mulliken atomic charges:
              1
     1  C   -0.123869
     2  C   -0.124491
     3  C   -0.123852
     4  C   -0.123874
     5  C   -0.124505
     6  C   -0.123870
     7  H    0.124080
     8  H    0.124094
     9  H    0.124078
    10  H    0.124061
    11  H    0.124072
    12  H    0.124077
 Sum of Mulliken atomic charges =  -0.00000
 Mulliken charges with hydrogens summed into heavy atoms:
              1
     1  C    0.000208
     2  C   -0.000411
     3  C    0.000242
     4  C    0.000204
     5  C   -0.000444
     6  C    0.000201
 Sum of Mulliken charges with hydrogens summed into heavy atoms =  -0.00000
 Electronic spatial extent (au):  <R**2>=            461.6113
 Charge=             -0.0000 electrons
 Dipole moment (field-independent basis, Debye):
    X=              0.0002    Y=             -0.0004    Z=              0.0000  Tot=              0.0004
 Quadrupole moment (field-independent basis, Debye-Ang):
   XX=            -32.2462   YY=            -32.2466   ZZ=            -40.3458
   XY=              0.0003   XZ=             -0.0000   YZ=             -0.0000
 Traceless Quadrupole moment (field-independent basis, Debye-Ang):
   XX=              2.7000   YY=              2.6996   ZZ=             -5.3996
   XY=              0.0003   XZ=             -0.0000   YZ=             -0.0000
 Octapole moment (field-independent basis, Debye-Ang**2):
  XXX=             -0.0071  YYY=             -0.0039  ZZZ=              0.0000  XYY=              0.0103
  XXY=             -0.0011  XXZ=              0.0000  XZZ=             -0.0003  YZZ=              0.0005
  YYZ=              0.0000  XYZ=              0.0000
 Hexadecapole moment (field-independent basis, Debye-Ang**3):
 XXXX=           -280.8133 YYYY=           -280.7524 ZZZZ=            -52.1192 XXXY=             -0.0003
 XXXZ=             -0.0000 YYYX=              0.0051 YYYZ=             -0.0000 ZZZX=              0.0000
 ZZZY=              0.0000 XXYY=            -93.5785 XXZZ=            -66.3425 YYZZ=            -66.3299
 XXYZ=             -0.0000 YYXZ=             -0.0000 ZZXY=              0.0004
 N-N= 2.029901417190D+02 E-N=-9.429382059604D+02  KE= 2.299121083991D+02
 Symmetry A'   KE= 2.236731845007D+02
 Symmetry A"   KE= 6.238923898408D+00
 No NMR shielding tensors so no spin-rotation constants.
 Leave Link  601 at Fri Jun 28 18:59:58 2024, MaxMem=   33554432 cpu:       0.1
 (Enter /programs/64bit/g09/g09-gfortran/bin/l9999.exe)
 B after Tr=     2.287409    0.000000    1.330975
         Rot=   -0.352064   -0.352064    0.613230    0.613230 Ang= 221.23 deg.
 Final structure in terms of initial Z-matrix:
 C
 C,1,cc2
 C,2,cc3,1,ccc3
 C,3,cc4,2,ccc4,1,dih4,0
 C,4,cc5,3,ccc5,2,dih5,0
 C,5,cc6,4,ccc6,3,dih6,0
 H,2,hc7,1,hcc7,3,dih7,0
 H,3,hc8,2,hcc8,4,dih8,0
 H,4,hc9,3,hcc9,5,dih9,0
 H,5,hc10,4,hcc10,3,dih10,0
 H,6,hc11,5,hcc11,4,dih11,0
 H,1,hc12,2,hcc12,3,dih12,0
      Variables:
 cc2=1.39881635
 cc3=1.39784074
 ccc3=120.01885702
 cc4=1.39872672
 ccc4=119.99154198
 dih4=0.
 cc5=1.39794334
 ccc5=119.99372024
 dih5=0.
 cc6=1.39888468
 ccc6=120.01409786
 dih6=0.
 hc7=1.08642747
 hcc7=119.93458393
 dih7=180.
 hc8=1.08641871
 hcc8=120.01546817
 dih8=180.
 hc9=1.08642268
 hcc9=120.01253426
 dih9=180.
 hc10=1.08644052
 hcc10=120.0128034
 dih10=180.
 hc11=1.08643212
 hcc11=119.94615335
 dih11=180.
 hc12=1.08642813
 hcc12=120.00724555
 dih12=180.
 1\1\GINC-MOLMOD\FOpt\RB3LYP\6-31+G(d,p)\C6H6\OSPITE\28-Jun-2024\0\\#p 
 B3LYP/6-31+g** opt out=wfn\\benzene\\0,1\C,-0.0125944006,0.,0.02819527
 21\C,0.0019827561,0.,1.426935661\C,1.2195401769,0.,2.1136034505\C,2.42
 3648355,0.,1.4018732194\C,2.4091807949,0.,0.004004746\C,1.1907064002,0
 .,-0.6831622538\H,-0.9338098265,0.,1.9788567466\H,1.2307975629,0.,3.19
 99638361\H,3.3701476188,0.,1.9352149233\H,3.3442700302,0.,-0.549132774
 8\H,1.1807510143,0.,-1.7695487576\H,-0.9590110801,0.,-0.5053040688\\Ve
 rsion=EM64L-G09RevA.02\State=1-A'\HF=-232.2683976\RMSD=6.037e-09\RMSF=
 1.810e-04\Dipole=0.0000767,0.,-0.0001547\Quadrupole=2.0073602,-4.01447
 95,2.0071193,0.,0.0002334,0.\PG=CS [SG(C6H6)]\\@

 Writing a WFN file to benzene.wfn.


 THE 2ND LAW OF THERMODYNAMICS HAS THE SAME
 DEGREE OF TRUTH AS THE STATEMENT THAT IF YOU THROW
 A TUMBLERFULL OF WATER INTO THE SEA, YOU CANNOT GET
 THE SAME TUMBLERFULL OF WATER OUT AGAIN.
          - J.C. MAXWELL, LETTER TO LORD RAYLEIGH, DECEMBER 6,1870
 Job cpu time:  0 days  0 hours  2 minutes 43.8 seconds.
 File lengths (MBytes):  RWF=     19 Int=      0 D2E=      0 Chk=      2 Scr=      1
 Normal termination of Gaussian 09 at Fri Jun 28 18:59:58 2024.
