 benzene                                                 
GAUSSIAN             21 MOL ORBITALS    234 PRIMITIVES       12 NUCLEI
  C    1    (CENTRE  1)   2.28915690  1.32030392  0.00000000  CHARGE =  6.0
  C    2    (CENTRE  2)  -0.00000000  2.64212746  0.00000000  CHARGE =  6.0
  C    3    (CENTRE  3)  -2.28814905  1.32224591  0.00000000  CHARGE =  6.0
  C    4    (CENTRE  4)  -2.28878308 -1.32096444  0.00000000  CHARGE =  6.0
  C    5    (CENTRE  5)  -0.00114983 -2.64212749  0.00000000  CHARGE =  6.0
  C    6    (CENTRE  6)   2.28869331 -1.32123465  0.00000000  CHARGE =  6.0
  H    7    (CENTRE  7)   0.00246387  4.69517636  0.00000000  CHARGE =  1.0
  H    8    (CENTRE  8)  -4.06600785  2.34897178  0.00000000  CHARGE =  1.0
  H    9    (CENTRE  9)  -4.06679069 -2.34744757  0.00000000  CHARGE =  1.0
  H   10    (CENTRE 10)  -0.00095850 -4.69520252  0.00000000  CHARGE =  1.0
  H   11    (CENTRE 11)   4.06534212 -2.35010342  0.00000000  CHARGE =  1.0
  H   12    (CENTRE 12)   4.06734147  2.34650108  0.00000000  CHARGE =  1.0
CENTRE ASSIGNMENTS    1  1  1  1  1  1  1  1  1  1  1  1  1  1  1  1  1  1  1  1
CENTRE ASSIGNMENTS    1  1  1  1  1  1  1  1  1  1  1  1  2  2  2  2  2  2  2  2
CENTRE ASSIGNMENTS    2  2  2  2  2  2  2  2  2  2  2  2  2  2  2  2  2  2  2  2
CENTRE ASSIGNMENTS    2  2  2  2  3  3  3  3  3  3  3  3  3  3  3  3  3  3  3  3
CENTRE ASSIGNMENTS    3  3  3  3  3  3  3  3  3  3  3  3  3  3  3  3  4  4  4  4
CENTRE ASSIGNMENTS    4  4  4  4  4  4  4  4  4  4  4  4  4  4  4  4  4  4  4  4
CENTRE ASSIGNMENTS    4  4  4  4  4  4  4  4  5  5  5  5  5  5  5  5  5  5  5  5
CENTRE ASSIGNMENTS    5  5  5  5  5  5  5  5  5  5  5  5  5  5  5  5  5  5  5  5
CENTRE ASSIGNMENTS    6  6  6  6  6  6  6  6  6  6  6  6  6  6  6  6  6  6  6  6
CENTRE ASSIGNMENTS    6  6  6  6  6  6  6  6  6  6  6  6  7  7  7  7  7  7  7  8
CENTRE ASSIGNMENTS    8  8  8  8  8  8  9  9  9  9  9  9  9 10 10 10 10 10 10 10
CENTRE ASSIGNMENTS   11 11 11 11 11 11 11 12 12 12 12 12 12 12
TYPE ASSIGNMENTS      1  1  1  1  1  1  1  1  1  2  2  2  3  3  3  4  4  4  1  2
TYPE ASSIGNMENTS      3  4  1  2  3  4  5  6  7  8  9 10  1  1  1  1  1  1  1  1
TYPE ASSIGNMENTS      1  2  2  2  3  3  3  4  4  4  1  2  3  4  1  2  3  4  5  6
TYPE ASSIGNMENTS      7  8  9 10  1  1  1  1  1  1  1  1  1  2  2  2  3  3  3  4
TYPE ASSIGNMENTS      4  4  1  2  3  4  1  2  3  4  5  6  7  8  9 10  1  1  1  1
TYPE ASSIGNMENTS      1  1  1  1  1  2  2  2  3  3  3  4  4  4  1  2  3  4  1  2
TYPE ASSIGNMENTS      3  4  5  6  7  8  9 10  1  1  1  1  1  1  1  1  1  2  2  2
TYPE ASSIGNMENTS      3  3  3  4  4  4  1  2  3  4  1  2  3  4  5  6  7  8  9 10
TYPE ASSIGNMENTS      1  1  1  1  1  1  1  1  1  2  2  2  3  3  3  4  4  4  1  2
TYPE ASSIGNMENTS      3  4  1  2  3  4  5  6  7  8  9 10  1  1  1  1  2  3  4  1
TYPE ASSIGNMENTS      1  1  1  2  3  4  1  1  1  1  2  3  4  1  1  1  1  2  3  4
TYPE ASSIGNMENTS      1  1  1  1  2  3  4  1  1  1  1  2  3  4
EXPONENTS  0.3047525D+04 0.4573695D+03 0.1039487D+03 0.2921016D+02 0.9286663D+01
EXPONENTS  0.3163927D+01 0.7868272D+01 0.1881289D+01 0.5442493D+00 0.7868272D+01
EXPONENTS  0.1881289D+01 0.5442493D+00 0.7868272D+01 0.1881289D+01 0.5442493D+00
EXPONENTS  0.7868272D+01 0.1881289D+01 0.5442493D+00 0.1687145D+00 0.1687145D+00
EXPONENTS  0.1687145D+00 0.1687145D+00 0.4380000D-01 0.4380000D-01 0.4380000D-01
EXPONENTS  0.4380000D-01 0.8000000D+00 0.8000000D+00 0.8000000D+00 0.8000000D+00
EXPONENTS  0.8000000D+00 0.8000000D+00 0.3047525D+04 0.4573695D+03 0.1039487D+03
EXPONENTS  0.2921016D+02 0.9286663D+01 0.3163927D+01 0.7868272D+01 0.1881289D+01
EXPONENTS  0.5442493D+00 0.7868272D+01 0.1881289D+01 0.5442493D+00 0.7868272D+01
EXPONENTS  0.1881289D+01 0.5442493D+00 0.7868272D+01 0.1881289D+01 0.5442493D+00
EXPONENTS  0.1687145D+00 0.1687145D+00 0.1687145D+00 0.1687145D+00 0.4380000D-01
EXPONENTS  0.4380000D-01 0.4380000D-01 0.4380000D-01 0.8000000D+00 0.8000000D+00
EXPONENTS  0.8000000D+00 0.8000000D+00 0.8000000D+00 0.8000000D+00 0.3047525D+04
EXPONENTS  0.4573695D+03 0.1039487D+03 0.2921016D+02 0.9286663D+01 0.3163927D+01
EXPONENTS  0.7868272D+01 0.1881289D+01 0.5442493D+00 0.7868272D+01 0.1881289D+01
EXPONENTS  0.5442493D+00 0.7868272D+01 0.1881289D+01 0.5442493D+00 0.7868272D+01
EXPONENTS  0.1881289D+01 0.5442493D+00 0.1687145D+00 0.1687145D+00 0.1687145D+00
EXPONENTS  0.1687145D+00 0.4380000D-01 0.4380000D-01 0.4380000D-01 0.4380000D-01
EXPONENTS  0.8000000D+00 0.8000000D+00 0.8000000D+00 0.8000000D+00 0.8000000D+00
EXPONENTS  0.8000000D+00 0.3047525D+04 0.4573695D+03 0.1039487D+03 0.2921016D+02
EXPONENTS  0.9286663D+01 0.3163927D+01 0.7868272D+01 0.1881289D+01 0.5442493D+00
EXPONENTS  0.7868272D+01 0.1881289D+01 0.5442493D+00 0.7868272D+01 0.1881289D+01
EXPONENTS  0.5442493D+00 0.7868272D+01 0.1881289D+01 0.5442493D+00 0.1687145D+00
EXPONENTS  0.1687145D+00 0.1687145D+00 0.1687145D+00 0.4380000D-01 0.4380000D-01
EXPONENTS  0.4380000D-01 0.4380000D-01 0.8000000D+00 0.8000000D+00 0.8000000D+00
EXPONENTS  0.8000000D+00 0.8000000D+00 0.8000000D+00 0.3047525D+04 0.4573695D+03
EXPONENTS  0.1039487D+03 0.2921016D+02 0.9286663D+01 0.3163927D+01 0.7868272D+01
EXPONENTS  0.1881289D+01 0.5442493D+00 0.7868272D+01 0.1881289D+01 0.5442493D+00
EXPONENTS  0.7868272D+01 0.1881289D+01 0.5442493D+00 0.7868272D+01 0.1881289D+01
EXPONENTS  0.5442493D+00 0.1687145D+00 0.1687145D+00 0.1687145D+00 0.1687145D+00
EXPONENTS  0.4380000D-01 0.4380000D-01 0.4380000D-01 0.4380000D-01 0.8000000D+00
EXPONENTS  0.8000000D+00 0.8000000D+00 0.8000000D+00 0.8000000D+00 0.8000000D+00
EXPONENTS  0.3047525D+04 0.4573695D+03 0.1039487D+03 0.2921016D+02 0.9286663D+01
EXPONENTS  0.3163927D+01 0.7868272D+01 0.1881289D+01 0.5442493D+00 0.7868272D+01
EXPONENTS  0.1881289D+01 0.5442493D+00 0.7868272D+01 0.1881289D+01 0.5442493D+00
EXPONENTS  0.7868272D+01 0.1881289D+01 0.5442493D+00 0.1687145D+00 0.1687145D+00
EXPONENTS  0.1687145D+00 0.1687145D+00 0.4380000D-01 0.4380000D-01 0.4380000D-01
EXPONENTS  0.4380000D-01 0.8000000D+00 0.8000000D+00 0.8000000D+00 0.8000000D+00
EXPONENTS  0.8000000D+00 0.8000000D+00 0.1873114D+02 0.2825394D+01 0.6401217D+00
EXPONENTS  0.1612778D+00 0.1100000D+01 0.1100000D+01 0.1100000D+01 0.1873114D+02
EXPONENTS  0.2825394D+01 0.6401217D+00 0.1612778D+00 0.1100000D+01 0.1100000D+01
EXPONENTS  0.1100000D+01 0.1873114D+02 0.2825394D+01 0.6401217D+00 0.1612778D+00
EXPONENTS  0.1100000D+01 0.1100000D+01 0.1100000D+01 0.1873114D+02 0.2825394D+01
EXPONENTS  0.6401217D+00 0.1612778D+00 0.1100000D+01 0.1100000D+01 0.1100000D+01
EXPONENTS  0.1873114D+02 0.2825394D+01 0.6401217D+00 0.1612778D+00 0.1100000D+01
EXPONENTS  0.1100000D+01 0.1100000D+01 0.1873114D+02 0.2825394D+01 0.6401217D+00
EXPONENTS  0.1612778D+00 0.1100000D+01 0.1100000D+01 0.1100000D+01
MO    1     MO 0.0        OCC NO =    2.0000000  ORB. ENERGY =  -10.198815
  0.21648416D+00  0.39937100D+00  0.64470863D+00  0.83921907D+00  0.71610716D+00
  0.24725459D+00 -0.79758718D-02 -0.36760720D-02  0.10308090D-01  0.11818843D-03
  0.90619393D-04  0.45225428D-04  0.61738978D-04  0.47337532D-04  0.23624746D-04
  0.00000000D+00  0.00000000D+00  0.00000000D+00 -0.71866713D-03 -0.47802533D-04
 -0.22587897D-04  0.00000000D+00  0.23118990D-04 -0.12530808D-04 -0.78469458D-05
  0.00000000D+00 -0.41844241D-02 -0.42765427D-02 -0.43401266D-02  0.16670310D-03
  0.00000000D+00  0.00000000D+00  0.22056085D+00  0.40689170D+00  0.65684936D+00
  0.85502270D+00  0.72959242D+00  0.25191073D+00 -0.81278384D-02 -0.37461133D-02
  0.10504493D-01  0.48853123D-05  0.37457476D-05  0.18693906D-05  0.13429813D-03
  0.10297129D-03  0.51389889D-04  0.00000000D+00  0.00000000D+00  0.00000000D+00
 -0.73289849D-03 -0.38752104D-05 -0.54693294D-04  0.00000000D+00  0.20184068D-04
  0.63063876D-06 -0.15035007D-04  0.00000000D+00 -0.44072615D-02 -0.42140684D-02
 -0.44194938D-02 -0.12606204D-05  0.00000000D+00  0.00000000D+00  0.22391016D+00
  0.41307052D+00  0.66682389D+00  0.86800658D+00  0.74067158D+00  0.25573610D+00
 -0.82540311D-02 -0.38042754D-02  0.10667585D-01 -0.11568631D-03 -0.88700928D-04
 -0.44267980D-04  0.64864588D-04  0.49734052D-04  0.24820778D-04  0.00000000D+00
  0.00000000D+00  0.00000000D+00 -0.75614767D-03  0.44568138D-04 -0.24608449D-04
  0.00000000D+00  0.40939336D-04  0.14444844D-04 -0.86048096D-05  0.00000000D+00
 -0.43242200D-02 -0.44210142D-02 -0.44844935D-02 -0.16660999D-03  0.00000000D+00
  0.00000000D+00  0.21869493D+00  0.40344945D+00  0.65129250D+00  0.84778932D+00
  0.72342016D+00  0.24977960D+00 -0.80585168D-02 -0.37141630D-02  0.10414901D-01
 -0.11195833D-03 -0.85842550D-04 -0.42841449D-04 -0.72660111D-04 -0.55711165D-04
 -0.27803776D-04  0.00000000D+00  0.00000000D+00  0.00000000D+00 -0.72838568D-03
  0.42865975D-04  0.31437724D-04  0.00000000D+00  0.26328262D-04  0.13992445D-04
  0.62209202D-05  0.00000000D+00 -0.42227434D-02 -0.43234688D-02 -0.43831546D-02
  0.16277429D-03  0.00000000D+00  0.00000000D+00  0.21156975D+00  0.39030488D+00
  0.63007310D+00  0.82016796D+00  0.69985081D+00  0.24164167D+00 -0.77913264D-02
 -0.35910152D-02  0.10069581D-01  0.41304022D-05  0.31669304D-05  0.15805202D-05
 -0.13444440D-03 -0.10308344D-03 -0.51445861D-04  0.00000000D+00  0.00000000D+00
  0.00000000D+00 -0.69051859D-03 -0.30318627D-05  0.55459654D-04  0.00000000D+00
  0.44424829D-05  0.76367047D-06  0.12958863D-04  0.00000000D+00 -0.42324879D-02
 -0.40426148D-02 -0.42445734D-02  0.11381809D-05  0.00000000D+00  0.00000000D+00
  0.21253377D+00  0.39208331D+00  0.63294403D+00  0.82390506D+00  0.70303968D+00
  0.24274271D+00 -0.78280664D-02 -0.36079487D-02  0.10117065D-01  0.11362002D-03
  0.87116622D-04  0.43477300D-04 -0.69060449D-04 -0.52951172D-04 -0.26426346D-04
  0.00000000D+00  0.00000000D+00  0.00000000D+00 -0.70054747D-03 -0.44486167D-04
  0.28646666D-04  0.00000000D+00  0.18501301D-04 -0.12344194D-04  0.66475893D-05
  0.00000000D+00 -0.41065988D-02 -0.42011516D-02 -0.42633530D-02 -0.16306898D-03
  0.00000000D+00  0.00000000D+00 -0.42971075D-04 -0.72887076D-04 -0.82979360D-04
  0.20477960D-03  0.38212746D-06  0.78824119D-04  0.00000000D+00 -0.43411021D-04
 -0.73633308D-04 -0.83828918D-04  0.20499924D-03 -0.70932195D-04  0.41303678D-04
  0.00000000D+00 -0.42831661D-04 -0.72650604D-04 -0.82710144D-04  0.20302742D-03
 -0.67531986D-04 -0.39833555D-04  0.00000000D+00 -0.42038829D-04 -0.71305811D-04
 -0.81179146D-04  0.20043493D-03 -0.52681605D-07 -0.73091912D-04  0.00000000D+00
 -0.42193776D-04 -0.71568630D-04 -0.81478356D-04  0.19983374D-03  0.64481560D-04
 -0.37700325D-04  0.00000000D+00 -0.42606732D-04 -0.72269081D-04 -0.82275795D-04
  0.20185093D-03  0.66841602D-04  0.38199593D-04  0.00000000D+00
MO    2     MO 0.0        OCC NO =    2.0000000  ORB. ENERGY =  -10.198551
  0.24964136D+00  0.46053956D+00  0.74345364D+00  0.96775574D+00  0.82578772D+00
  0.28512466D+00 -0.93409806D-02 -0.43052494D-02  0.12072369D-01 -0.10027660D-03
 -0.76885739D-04 -0.38371372D-04  0.17517661D-03  0.13431431D-03  0.67032254D-04
  0.00000000D+00  0.00000000D+00  0.00000000D+00 -0.11880025D-02  0.10419638D-03
 -0.11926198D-03  0.00000000D+00  0.48405424D-03 -0.69571752D-04  0.18034126D-05
  0.00000000D+00 -0.47237239D-02 -0.48762567D-02 -0.48546719D-02  0.23160063D-04
  0.00000000D+00  0.00000000D+00 -0.33948817D-01 -0.62628938D-01 -0.10110252D+00
 -0.13160545D+00 -0.11229917D+00 -0.38774204D-01  0.12715788D-02  0.58606950D-03
 -0.16434000D-02 -0.33555545D-03 -0.25728264D-03 -0.12840207D-03  0.11236291D-05
  0.86152756D-06  0.42996263D-06  0.00000000D+00  0.00000000D+00  0.00000000D+00
  0.16120102D-03  0.25858520D-03 -0.31974939D-05  0.00000000D+00 -0.64609451D-04
 -0.60872081D-04  0.81642846D-05  0.00000000D+00  0.65822009D-03  0.64684350D-03
  0.65820028D-03  0.20369206D-03  0.00000000D+00  0.00000000D+00 -0.28186622D+00
 -0.51998813D+00 -0.83942207D+00 -0.10926781D+01 -0.93238422D+00 -0.32192986D+00
  0.10552043D-01  0.48634269D-02 -0.13637557D-01 -0.69747400D-04 -0.53477883D-04
 -0.26689211D-04 -0.11116267D-03 -0.85232486D-04 -0.42536984D-04  0.00000000D+00
  0.00000000D+00  0.00000000D+00  0.13615147D-02  0.86623875D-04  0.66364800D-04
  0.00000000D+00 -0.57232048D-03 -0.71615151D-04  0.14133957D-04  0.00000000D+00
  0.53549753D-02  0.54772968D-02  0.54766978D-02  0.51559149D-04  0.00000000D+00
  0.00000000D+00 -0.24046031D+00 -0.44360233D+00 -0.71611170D+00 -0.93216465D+00
 -0.79541779D+00 -0.27463865D+00  0.90006208D-02  0.41483779D-02 -0.11632485D-01
 -0.10288007D-03 -0.78881914D-04 -0.39367604D-04  0.17566164D-03  0.13468620D-03
  0.67217855D-04  0.00000000D+00  0.00000000D+00  0.00000000D+00  0.11460106D-02
  0.10296993D-03 -0.12179495D-03  0.00000000D+00 -0.46105696D-03 -0.67797824D-04
  0.33529353D-05  0.00000000D+00  0.45476551D-02  0.47021459D-02  0.46724355D-02
 -0.18120517D-04  0.00000000D+00  0.00000000D+00  0.40670554D-01  0.75029230D-01
  0.12112044D+00  0.15766283D+00  0.13453398D+00  0.46451349D-01 -0.15201841D-02
 -0.70065148D-03  0.19646999D-02 -0.33282572D-03 -0.25518965D-03 -0.12735752D-03
 -0.16806613D-05 -0.12886245D-05 -0.64311393D-06  0.00000000D+00  0.00000000D+00
  0.00000000D+00 -0.18614107D-03  0.25630233D-03 -0.21014444D-05  0.00000000D+00
  0.69658443D-04 -0.59581489D-04  0.88631751D-05  0.00000000D+00 -0.79259812D-03
 -0.77450526D-03 -0.79285974D-03 -0.20034397D-03  0.00000000D+00  0.00000000D+00
  0.28484003D+00  0.52547423D+00  0.84827834D+00  0.11042063D+01  0.94222128D+00
  0.32532636D+00 -0.10658450D-01 -0.49124697D-02  0.13775078D-01 -0.64077849D-04
 -0.49130831D-04 -0.24519728D-04 -0.11533854D-03 -0.88434280D-04 -0.44134904D-04
  0.00000000D+00  0.00000000D+00  0.00000000D+00 -0.13572093D-02  0.82033783D-04
  0.70103900D-04  0.00000000D+00  0.54620794D-03 -0.70173762D-04  0.13188141D-04
  0.00000000D+00 -0.54170585D-02 -0.55407709D-02 -0.55381108D-02 -0.58359715D-04
  0.00000000D+00  0.00000000D+00  0.32898796D-05  0.55802585D-05  0.63529271D-05
 -0.15055063D-04 -0.13475069D-04 -0.23028594D-04  0.00000000D+00  0.30231821D-04
  0.51278890D-04  0.58379204D-04 -0.12798660D-03  0.16031675D-03 -0.98745225D-04
  0.00000000D+00  0.25575909D-04  0.43381582D-04  0.49388398D-04 -0.11161694D-03
  0.13365360D-03  0.86862812D-04  0.00000000D+00 -0.46299908D-05 -0.78533407D-05
 -0.89407508D-05  0.21028801D-04 -0.12980318D-04 -0.26006332D-04  0.00000000D+00
 -0.31038308D-04 -0.52646845D-04 -0.59936572D-04  0.13376398D-03  0.15913439D-03
 -0.97987237D-04  0.00000000D+00 -0.27151158D-04 -0.46053502D-04 -0.52430285D-04
  0.11744597D-03  0.13840784D-03  0.88727158D-04  0.00000000D+00
MO    3     MO 0.0        OCC NO =    2.0000000  ORB. ENERGY =  -10.198546
 -0.18069488D+00 -0.33334678D+00 -0.53812506D+00 -0.70047893D+00 -0.59771994D+00
 -0.20637833D+00  0.67651173D-02  0.31180364D-02 -0.87432994D-02 -0.13302050D-03
 -0.10199168D-03 -0.50900996D-04  0.23399534D-03  0.17941279D-03  0.89539555D-04
  0.00000000D+00  0.00000000D+00  0.00000000D+00  0.87298337D-03  0.80216836D-04
 -0.19294827D-03  0.00000000D+00 -0.35770316D-03  0.13589713D-04  0.63844406D-04
  0.00000000D+00  0.35280469D-02  0.34214397D-02  0.35098081D-02 -0.14285243D-03
  0.00000000D+00  0.00000000D+00 -0.30294923D+00 -0.55888217D+00 -0.90220910D+00
 -0.11744082D+01 -0.10021246D+01 -0.34600955D+00  0.11339186D-01  0.52262206D-02
 -0.14654868D-01  0.39856863D-04  0.30559715D-04  0.15251440D-04  0.30509963D-05
  0.23393105D-05  0.11674799D-05  0.00000000D+00  0.00000000D+00  0.00000000D+00
  0.14452078D-02 -0.30470551D-04 -0.36640928D-04  0.00000000D+00 -0.59289792D-03
  0.70654423D-05  0.72606876D-04  0.00000000D+00  0.58813229D-02  0.57669397D-02
  0.58877339D-02 -0.25208698D-04  0.00000000D+00  0.00000000D+00 -0.11879627D+00
 -0.21915592D+00 -0.35378560D+00 -0.46052374D+00 -0.39296574D+00 -0.13568163D+00
  0.44488645D-02  0.20504776D-02 -0.57497532D-02  0.15278499D-03  0.11714584D-03
  0.58463983D-04  0.27177623D-03  0.20838078D-03  0.10399661D-03  0.00000000D+00
  0.00000000D+00  0.00000000D+00  0.58555219D-03 -0.10016202D-03 -0.21945701D-03
  0.00000000D+00 -0.25604568D-03  0.21589084D-05  0.64259359D-04  0.00000000D+00
  0.23519892D-02  0.22089456D-02  0.23065598D-02  0.13142389D-03  0.00000000D+00
  0.00000000D+00  0.19129875D+00  0.35290883D+00  0.56970428D+00  0.74158570D+00
  0.63279642D+00  0.21848940D+00 -0.71594826D-02 -0.32997990D-02  0.92529808D-02
 -0.13287005D-03 -0.10187632D-03 -0.50843425D-04  0.23338508D-03  0.17894488D-03
  0.89306036D-04  0.00000000D+00  0.00000000D+00  0.00000000D+00 -0.92797821D-03
  0.75464370D-04 -0.19500970D-03  0.00000000D+00  0.39670023D-03  0.16731421D-04
  0.65600773D-04  0.00000000D+00 -0.37265407D-02 -0.36226166D-02 -0.37192945D-02
  0.14324864D-03  0.00000000D+00  0.00000000D+00  0.30556849D+00  0.56371419D+00
  0.91000949D+00  0.11845620D+01  0.10107889D+01  0.34900111D+00 -0.11432892D-01
 -0.52694093D-02  0.14775974D-01  0.42495653D-04  0.32582971D-04  0.16261186D-04
 -0.31679607D-05 -0.24289913D-05 -0.12122369D-05  0.00000000D+00  0.00000000D+00
  0.00000000D+00 -0.14410717D-02 -0.33044808D-04 -0.31257111D-04  0.00000000D+00
  0.56916081D-03  0.79535215D-05  0.71017976D-04  0.00000000D+00 -0.59400017D-02
 -0.58192710D-02 -0.59419007D-02  0.25376307D-04  0.00000000D+00  0.00000000D+00
  0.12256562D+00  0.22610964D+00  0.36501107D+00  0.47513596D+00  0.40543437D+00
  0.13998675D+00 -0.45866821D-02 -0.21139976D-02  0.59278699D-02  0.15483791D-03
  0.11871989D-03  0.59249545D-04  0.26667270D-03  0.20446771D-03  0.10204372D-03
  0.00000000D+00  0.00000000D+00  0.00000000D+00 -0.59106111D-03 -0.10207863D-03
 -0.21497289D-03  0.00000000D+00  0.24252652D-03  0.21335784D-05  0.62522413D-04
  0.00000000D+00 -0.24254596D-02 -0.22888846D-02 -0.23833752D-02 -0.13587327D-03
  0.00000000D+00  0.00000000D+00  0.32279236D-04  0.54751694D-04  0.62332869D-04
 -0.14033201D-03  0.13797900D-05 -0.20108511D-03  0.00000000D+00  0.12724973D-04
  0.21583963D-04  0.24572579D-04 -0.51603744D-04  0.75624008D-04 -0.29177858D-04
  0.00000000D+00 -0.21090274D-04 -0.35773097D-04 -0.40726407D-04  0.87220057D-04
 -0.11516650D-03 -0.54414095D-04  0.00000000D+00 -0.33012472D-04 -0.55995401D-04
 -0.63748784D-04  0.14556837D-03  0.17007847D-05 -0.19985332D-03  0.00000000D+00
 -0.13646341D-04 -0.23146778D-04 -0.26351788D-04  0.56919409D-04  0.75519629D-04
 -0.29797706D-04  0.00000000D+00  0.19384848D-04  0.32880371D-04  0.37433141D-04
 -0.81949097D-04 -0.10934754D-03 -0.50575992D-04  0.00000000D+00
MO    4     MO 0.0        OCC NO =    2.0000000  ORB. ENERGY =  -10.197997
 -0.23806410D+00 -0.43918178D+00 -0.70897557D+00 -0.92287554D+00 -0.78749137D+00
 -0.27190184D+00  0.89649467D-02  0.41319358D-02 -0.11586379D-01  0.83336986D-04
  0.63897515D-04  0.31889338D-04  0.20878224D-03  0.16008098D-03  0.79891629D-04
  0.00000000D+00  0.00000000D+00  0.00000000D+00  0.17267357D-02 -0.18261723D-03
 -0.24832462D-03  0.00000000D+00 -0.18527134D-02  0.10237503D-03  0.12504589D-03
  0.00000000D+00  0.44153043D-02  0.41913807D-02  0.46348862D-02 -0.19068361D-04
  0.00000000D+00  0.00000000D+00 -0.49960607D-01 -0.92167564D-01 -0.14878703D+00
 -0.19367650D+00 -0.16526451D+00 -0.57061863D-01  0.18850899D-02  0.86883623D-03
 -0.24363075D-02  0.21452699D-03  0.16448569D-03  0.82089887D-04  0.37624909D-04
  0.28848394D-04  0.14397370D-04  0.00000000D+00  0.00000000D+00  0.00000000D+00
  0.39789945D-03 -0.19275305D-03 -0.77170975D-04  0.00000000D+00 -0.42403534D-03
  0.90270111D-04  0.34402476D-04  0.00000000D+00  0.89347836D-03  0.91139707D-03
  0.96923703D-03 -0.31963006D-03  0.00000000D+00  0.00000000D+00  0.28609361D+00
  0.52778684D+00  0.85201161D+00  0.11090660D+01  0.94636800D+00  0.32675813D+00
 -0.10782098D-01 -0.49694592D-02  0.13934882D-01  0.14964208D-03  0.11473606D-03
  0.57261333D-04 -0.17729786D-03 -0.13594075D-03 -0.67843963D-04  0.00000000D+00
  0.00000000D+00  0.00000000D+00 -0.21579478D-02 -0.29312737D-03  0.25157000D-03
  0.00000000D+00  0.23301055D-02  0.14752980D-03 -0.12352048D-03  0.00000000D+00
 -0.52422433D-02 -0.50814561D-02 -0.55625276D-02  0.42902157D-04  0.00000000D+00
  0.00000000D+00 -0.24492396D+00 -0.45183687D+00 -0.72940481D+00 -0.94946834D+00
 -0.81018305D+00 -0.27973674D+00  0.92296583D-02  0.42539411D-02 -0.11928495D-01
 -0.93458232D-04 -0.71657845D-04 -0.35762287D-04 -0.20643373D-03 -0.15828029D-03
 -0.78992956D-04  0.00000000D+00  0.00000000D+00  0.00000000D+00  0.18430014D-02
  0.22071288D-03  0.26499690D-03  0.00000000D+00 -0.19804326D-02 -0.11180917D-03
 -0.12898808D-03  0.00000000D+00  0.45328362D-02  0.43119006D-02  0.47619134D-02
 -0.14777631D-04  0.00000000D+00  0.00000000D+00 -0.39963389D-01 -0.73724649D-01
 -0.11901444D+00 -0.15492144D+00 -0.13219475D+00 -0.45643669D-01  0.15018981D-02
  0.69222345D-03 -0.19410668D-02 -0.21745220D-03 -0.16672856D-03 -0.83209235D-04
 -0.28755375D-04 -0.22047798D-04 -0.11003396D-04  0.00000000D+00  0.00000000D+00
  0.00000000D+00  0.26440490D-03  0.19519822D-03  0.34904855D-04  0.00000000D+00
 -0.28523580D-03 -0.90824811D-04 -0.23379653D-04  0.00000000D+00  0.71401451D-03
  0.73193691D-03  0.78064023D-03 -0.32101902D-03  0.00000000D+00  0.00000000D+00
  0.28473746D+00  0.52528501D+00  0.84797287D+00  0.11038087D+01  0.94188198D+00
  0.32520921D+00 -0.10722954D-01 -0.49421996D-02  0.13858444D-01 -0.14081971D-03
 -0.10797162D-03 -0.53885405D-04  0.17660313D-03  0.13540808D-03  0.67578120D-04
  0.00000000D+00  0.00000000D+00  0.00000000D+00 -0.20671703D-02  0.25688889D-03
 -0.23309214D-03  0.00000000D+00  0.22120994D-02 -0.13948911D-03  0.11972086D-03
  0.00000000D+00 -0.52298151D-02 -0.50674560D-02 -0.55423309D-02  0.37033368D-04
  0.00000000D+00  0.00000000D+00  0.69584600D-05  0.11802865D-04  0.13437145D-04
  0.25549646D-05  0.49077393D-04 -0.55416688D-04  0.00000000D+00 -0.37157995D-04
 -0.63026992D-04 -0.71754002D-04  0.37997934D-05 -0.28692420D-03  0.14474355D-03
  0.00000000D+00  0.31883533D-04  0.54080506D-04  0.61568745D-04 -0.41633443D-05
  0.25190042D-03  0.10995637D-03  0.00000000D+00  0.46090752D-05  0.78178639D-05
  0.89003617D-05 -0.62768043D-05 -0.49164757D-04  0.44282947D-04  0.00000000D+00
 -0.35863566D-04 -0.60831395D-04 -0.69254393D-04  0.16274796D-04  0.28300483D-03
 -0.14211648D-03  0.00000000D+00  0.29981656D-04  0.50854563D-04  0.57896123D-04
 -0.14197646D-04 -0.24489808D-03 -0.10563843D-03  0.00000000D+00
MO    5     MO 0.0        OCC NO =    2.0000000  ORB. ENERGY =  -10.197993
 -0.19367199D+00 -0.35728700D+00 -0.57677201D+00 -0.75078578D+00 -0.64064686D+00
 -0.22119997D+00  0.72993183D-02  0.33642491D-02 -0.94337057D-02  0.21142616D-03
  0.16210817D-03  0.80903339D-04 -0.72993773D-04 -0.55966996D-04 -0.27931453D-04
  0.00000000D+00  0.00000000D+00  0.00000000D+00  0.14628934D-02 -0.30000760D-03
  0.26004804D-05  0.00000000D+00 -0.15735148D-02  0.14661372D-03  0.24070402D-05
  0.00000000D+00  0.34064211D-02  0.35854905D-02  0.37643538D-02  0.19432889D-03
  0.00000000D+00  0.00000000D+00  0.30598244D+00  0.56447785D+00  0.91124228D+00
  0.11861667D+01  0.10121582D+01  0.34947390D+00 -0.11529741D-01 -0.53140469D-02
  0.14901142D-01  0.30939660D-04  0.23722569D-04  0.11839224D-04 -0.23063086D-03
 -0.17683312D-03 -0.88252119D-04  0.00000000D+00  0.00000000D+00  0.00000000D+00
 -0.22947441D-02 -0.28151662D-04  0.40017852D-03  0.00000000D+00  0.24705734D-02
  0.13098574D-04 -0.20110902D-03  0.00000000D+00 -0.54619905D-02 -0.55858473D-02
 -0.59505471D-02 -0.45148627D-04  0.00000000D+00  0.00000000D+00 -0.11598669D+00
 -0.21397279D+00 -0.34541843D+00 -0.44963216D+00 -0.38367194D+00 -0.13247270D+00
  0.43734372D-02  0.20157132D-02 -0.56522703D-02 -0.17830271D-03 -0.13671121D-03
 -0.68228474D-04 -0.12999702D-03 -0.99673471D-04 -0.49744047D-04  0.00000000D+00
  0.00000000D+00  0.00000000D+00  0.89047548D-03  0.23023992D-03  0.75878525D-04
  0.00000000D+00 -0.96072861D-03 -0.10990962D-03 -0.34159291D-04  0.00000000D+00
  0.19738338D-02  0.22107301D-02  0.22533158D-02 -0.19076433D-03  0.00000000D+00
  0.00000000D+00 -0.18622256D+00 -0.34354425D+00 -0.55458694D+00 -0.72190742D+00
 -0.61600491D+00 -0.21269169D+00  0.70135708D-02  0.32325484D-02 -0.90644031D-02
 -0.20790893D-03 -0.15941138D-03 -0.79557450D-04  0.80110591D-04  0.61423720D-04
  0.30654741D-04  0.00000000D+00  0.00000000D+00  0.00000000D+00  0.13535902D-02
  0.26947869D-03 -0.23392257D-04  0.00000000D+00 -0.14584193D-02 -0.13898134D-03
  0.29437249D-05  0.00000000D+00  0.32728290D-02  0.34553445D-02  0.36251995D-02
  0.19446887D-03  0.00000000D+00  0.00000000D+00  0.30412199D+00  0.56104568D+00
  0.90570169D+00  0.11789545D+01  0.10060040D+01  0.34734901D+00 -0.11452494D-01
 -0.52784442D-02  0.14801308D-01 -0.32513830D-04 -0.24929543D-04 -0.12441589D-04
  0.22333025D-03  0.17123547D-03  0.85458501D-04  0.00000000D+00  0.00000000D+00
  0.00000000D+00 -0.22108059D-02  0.28536320D-04 -0.36395500D-03  0.00000000D+00
  0.23642331D-02 -0.13422524D-04  0.19309372D-03  0.00000000D+00 -0.54392968D-02
 -0.55596608D-02 -0.59197408D-02 -0.48349662D-04  0.00000000D+00  0.00000000D+00
 -0.10919846D+00 -0.20144983D+00 -0.32520250D+00 -0.42331702D+00 -0.36121718D+00
 -0.12471961D+00  0.41112624D-02  0.18948771D-02 -0.53134331D-02  0.17264711D-03
  0.13237486D-03  0.66064331D-04  0.13619551D-03  0.10442608D-03  0.52115933D-04
  0.00000000D+00  0.00000000D+00  0.00000000D+00  0.78179526D-03 -0.19913301D-03
 -0.96586409D-04  0.00000000D+00 -0.84163741D-03  0.10212478D-03  0.39220420D-04
  0.00000000D+00  0.18540950D-02  0.20919811D-02  0.21264120D-02 -0.19043827D-03
  0.00000000D+00  0.00000000D+00 -0.39709004D-04 -0.67353986D-04 -0.76680133D-04
  0.65433056D-05  0.71325431D-05  0.34175665D-03  0.00000000D+00  0.15274571D-04
  0.25908563D-04  0.29495983D-04  0.10259816D-05  0.89845663D-04 -0.10518093D-03
  0.00000000D+00  0.23340690D-04  0.39590228D-04  0.45072075D-04 -0.10223736D-04
  0.16094157D-03  0.13792250D-03  0.00000000D+00 -0.38475730D-04 -0.65262121D-04
 -0.74298618D-04  0.17370743D-04 -0.73841790D-05 -0.33707618D-03  0.00000000D+00
  0.13414131D-04  0.22752905D-04  0.25903378D-04 -0.78021338D-05 -0.82471631D-04
  0.10094185D-03  0.00000000D+00  0.25164618D-04  0.42683954D-04  0.48594173D-04
 -0.19189472D-05 -0.16800118D-03 -0.14181553D-03  0.00000000D+00
MO    6     MO 0.0        OCC NO =    2.0000000  ORB. ENERGY =  -10.197731
  0.21818557D+00  0.40250977D+00  0.64977557D+00  0.84581473D+00  0.72173524D+00
  0.24919783D+00 -0.84623265D-02 -0.39002786D-02  0.10936788D-01 -0.24268335D-03
 -0.18607420D-03 -0.92864066D-04 -0.14418500D-03 -0.11055191D-03 -0.55173151D-04
  0.00000000D+00  0.00000000D+00  0.00000000D+00 -0.40325434D-02  0.12618530D-02
  0.73284661D-03  0.00000000D+00  0.45637921D-02 -0.30839724D-03 -0.17992702D-03
  0.00000000D+00 -0.37545264D-02 -0.37116740D-02 -0.40250746D-02 -0.62420656D-04
  0.00000000D+00  0.00000000D+00 -0.21430347D+00 -0.39534806D+00 -0.63821435D+00
 -0.83076545D+00 -0.70889367D+00 -0.24476395D+00  0.83156861D-02  0.38326921D-02
 -0.10747269D-01 -0.19157715D-05 -0.14688920D-05 -0.73308008D-06  0.27835510D-03
  0.21342503D-03  0.10651405D-03  0.00000000D+00  0.00000000D+00  0.00000000D+00
  0.40001911D-02  0.77542988D-06 -0.14524284D-02  0.00000000D+00 -0.45232633D-02
 -0.10332524D-05  0.35387617D-03  0.00000000D+00  0.36283587D-02  0.37010007D-02
  0.39495038D-02  0.30513887D-05  0.00000000D+00  0.00000000D+00  0.21124822D+00
  0.38971173D+00  0.62911556D+00  0.81892153D+00  0.69878723D+00  0.24127444D+00
 -0.82013307D-02 -0.37799858D-02  0.10599475D-01  0.24064676D-03  0.18451267D-03
  0.92084754D-04 -0.13859300D-03 -0.10626433D-03 -0.53033346D-04  0.00000000D+00
  0.00000000D+00  0.00000000D+00 -0.39837772D-02 -0.12569438D-02  0.72579274D-03
  0.00000000D+00  0.45116973D-02  0.30526857D-03 -0.17682971D-03  0.00000000D+00
 -0.36258486D-02 -0.35884980D-02 -0.38900417D-02  0.62689149D-04  0.00000000D+00
  0.00000000D+00 -0.21613587D+00 -0.39872848D+00 -0.64367139D+00 -0.83786890D+00
 -0.71495505D+00 -0.24685680D+00  0.83851065D-02  0.38646879D-02 -0.10836988D-01
 -0.24616983D-03 -0.18874741D-03 -0.94198186D-04 -0.13508168D-03 -0.10357206D-03
 -0.51689718D-04  0.00000000D+00  0.00000000D+00  0.00000000D+00  0.40174361D-02
  0.12641336D-02  0.72375172D-03  0.00000000D+00 -0.45474313D-02 -0.30906321D-03
 -0.17611046D-03  0.00000000D+00  0.37117551D-02  0.36803790D-02  0.39851826D-02
  0.68059580D-04  0.00000000D+00  0.00000000D+00  0.22304693D+00  0.41147803D+00
  0.66425312D+00  0.86466019D+00  0.73781611D+00  0.25475017D+00 -0.86446953D-02
 -0.39843322D-02  0.11172483D-01  0.15145693D-05  0.11612757D-05  0.57955794D-06
  0.28447148D-03  0.21811469D-03  0.10885451D-03  0.00000000D+00  0.00000000D+00
  0.00000000D+00 -0.40629715D-02 -0.13238124D-05 -0.14628987D-02  0.00000000D+00
  0.45925801D-02  0.10398004D-05  0.35950269D-03  0.00000000D+00 -0.37844480D-02
 -0.38607987D-02 -0.41196502D-02  0.29897142D-05  0.00000000D+00  0.00000000D+00
 -0.22203298D+00 -0.40960749D+00 -0.66123349D+00 -0.86072953D+00 -0.73446207D+00
 -0.25359210D+00  0.86072380D-02  0.39670681D-02 -0.11124073D-01  0.24771123D-03
  0.18992926D-03  0.94788013D-04 -0.14162458D-03 -0.10858874D-03 -0.54193394D-04
  0.00000000D+00  0.00000000D+00  0.00000000D+00  0.40616664D-02 -0.12681418D-02
  0.73239226D-03  0.00000000D+00 -0.45973725D-02  0.31179250D-03 -0.17943286D-03
  0.00000000D+00  0.38207862D-02  0.37831907D-02  0.40999489D-02 -0.67797903D-04
  0.00000000D+00  0.00000000D+00  0.65036361D-04  0.11031398D-03  0.12558857D-03
  0.36148018D-03 -0.79642770D-06 -0.28489479D-03  0.00000000D+00 -0.64690863D-04
 -0.10972795D-03 -0.12492139D-03 -0.36278033D-03 -0.24469202D-03  0.14105212D-03
  0.00000000D+00  0.65310429D-04  0.11077885D-03  0.12611780D-03  0.36230474D-03
  0.24870610D-03  0.14456605D-03  0.00000000D+00 -0.66158246D-04 -0.11221691D-03
 -0.12775498D-03 -0.36110637D-03  0.48754057D-06 -0.29467571D-03  0.00000000D+00
  0.66071970D-04  0.11207057D-03  0.12758838D-03  0.36230068D-03 -0.25478533D-03
  0.14768919D-03  0.00000000D+00 -0.65572959D-04 -0.11122415D-03 -0.12662476D-03
 -0.36223490D-03  0.25165387D-03  0.14404326D-03  0.00000000D+00