 Entering Gaussian System, Link 0=g09
 Input=ethane.com
 Output=ethane.log
 Initial command:
 /programs/64bit/g09/g09-gfortran/bin/l1.exe /data/scratch/Gau-3189.inp -scrdir=/data/scratch/
 Entering Link 1 = /programs/64bit/g09/g09-gfortran/bin/l1.exe PID=      3190.
  
 Copyright (c) 1988,1990,1992,1993,1995,1998,2003,2009, Gaussian, Inc.
                  All Rights Reserved.
  
 This is part of the Gaussian(R) 09 program.  It is based on
 the Gaussian(R) 03 system (copyright 2003, Gaussian, Inc.),
 the Gaussian(R) 98 system (copyright 1998, Gaussian, Inc.),
 the Gaussian(R) 94 system (copyright 1995, Gaussian, Inc.),
 the Gaussian 92(TM) system (copyright 1992, Gaussian, Inc.),
 the Gaussian 90(TM) system (copyright 1990, Gaussian, Inc.),
 the Gaussian 88(TM) system (copyright 1988, Gaussian, Inc.),
 the Gaussian 86(TM) system (copyright 1986, Carnegie Mellon
 University), and the Gaussian 82(TM) system (copyright 1983,
 Carnegie Mellon University). Gaussian is a federally registered
 trademark of Gaussian, Inc.
  
 This software contains proprietary and confidential information,
 including trade secrets, belonging to Gaussian, Inc.
  
 This software is provided under written license and may be
 used, copied, transmitted, or stored only in accord with that
 written license.
  
 The following legend is applicable only to US Government
 contracts under FAR:
  
                    RESTRICTED RIGHTS LEGEND
  
 Use, reproduction and disclosure by the US Government is
 subject to restrictions as set forth in subparagraphs (a)
 and (c) of the Commercial Computer Software - Restricted
 Rights clause in FAR 52.227-19.
  
 Gaussian, Inc.
 340 Quinnipiac St., Bldg. 40, Wallingford CT 06492
  
  
 ---------------------------------------------------------------
 Warning -- This program may not be used in any manner that
 competes with the business of Gaussian, Inc. or will provide
 assistance to any competitor of Gaussian, Inc.  The licensee
 of this program is prohibited from giving any competitor of
 Gaussian, Inc. access to this program.  By using this program,
 the user acknowledges that Gaussian, Inc. is engaged in the
 business of creating and licensing software in the field of
 computational chemistry and represents and warrants to the
 licensee that it is not a competitor of Gaussian, Inc. and that
 it will not use this program in any manner prohibited above.
 ---------------------------------------------------------------
  

 Cite this work as:
 Gaussian 09, Revision A.02,
 M. J. Frisch, G. W. Trucks, H. B. Schlegel, G. E. Scuseria, 
 M. A. Robb, J. R. Cheeseman, G. Scalmani, V. Barone, B. Mennucci, 
 G. A. Petersson, H. Nakatsuji, M. Caricato, X. Li, H. P. Hratchian, 
 A. F. Izmaylov, J. Bloino, G. Zheng, J. L. Sonnenberg, M. Hada, 
 M. Ehara, K. Toyota, R. Fukuda, J. Hasegawa, M. Ishida, T. Nakajima, 
 Y. Honda, O. Kitao, H. Nakai, T. Vreven, J. A. Montgomery, Jr., 
 J. E. Peralta, F. Ogliaro, M. Bearpark, J. J. Heyd, E. Brothers, 
 K. N. Kudin, V. N. Staroverov, R. Kobayashi, J. Normand, 
 K. Raghavachari, A. Rendell, J. C. Burant, S. S. Iyengar, J. Tomasi, 
 M. Cossi, N. Rega, J. M. Millam, M. Klene, J. E. Knox, J. B. Cross, 
 V. Bakken, C. Adamo, J. Jaramillo, R. Gomperts, R. E. Stratmann, 
 O. Yazyev, A. J. Austin, R. Cammi, C. Pomelli, J. W. Ochterski, 
 R. L. Martin, K. Morokuma, V. G. Zakrzewski, G. A. Voth, 
 P. Salvador, J. J. Dannenberg, S. Dapprich, A. D. Daniels, 
 O. Farkas, J. B. Foresman, J. V. Ortiz, J. Cioslowski, 
 and D. J. Fox, Gaussian, Inc., Wallingford CT, 2009.
 
 ******************************************
 Gaussian 09:  EM64L-G09RevA.02 11-Jun-2009
                17-May-2024 
 ******************************************
 ----------------------------
 #p B3LYP/6-31g** opt out=wfn
 ----------------------------
 1/14=-1,18=20,19=15,26=3,38=1/1,3;
 2/9=110,12=2,17=6,18=5,40=1/2;
 3/5=1,6=6,7=101,11=2,16=1,25=1,30=1,71=1,74=-5/1,2,3;
 4//1;
 5/5=2,38=5/2;
 6/7=2,8=2,9=2,10=2,28=1/1;
 7//1,2,3,16;
 1/14=-1,18=20,19=15/3(2);
 2/9=110/2;
 99/6=100/99;
 2/9=110/2;
 3/5=1,6=6,7=101,11=2,16=1,25=1,30=1,71=1,74=-5/1,2,3;
 4/5=5,16=3/1;
 5/5=2,38=5/2;
 7//1,2,3,16;
 1/14=-1,18=20,19=15/3(-5);
 2/9=110/2;
 6/7=2,8=2,9=2,10=2,19=2,28=1/1;
 99/6=100,9=1/99;
 Leave Link    1 at Fri May 17 11:36:37 2024, MaxMem=          0 cpu:       0.1
 (Enter /programs/64bit/g09/g09-gfortran/bin/l101.exe)
 ------
 ethane
 ------
 Symbolic Z-matrix:
 Charge =  0 Multiplicity = 1
 c
 c                    1    cc2
 h                    1    hc3      2    hcc3
 h                    1    hc4      2    hcc4     3    dih4     0
 h                    1    hc5      2    hcc5     3    dih5     0
 h                    2    hc6      1    hcc6     3    dih6     0
 h                    2    hc7      1    hcc7     6    dih7     0
 h                    2    hc8      1    hcc8     6    dih8     0
       Variables:
  cc2                   1.45                     
  hc3                   1.089                    
  hcc3                109.471                    
  hc4                   1.089                    
  hcc4                109.471                    
  dih4                300.                       
  hc5                   1.089                    
  hcc5                109.471                    
  dih5                100.                       
  hc6                   1.089                    
  hcc6                109.471                    
  dih6                180.                       
  hc7                   1.089                    
  hcc7                109.471                    
  dih7                120.                       
  hc8                   1.089                    
  hcc8                109.471                    
  dih8                240.                       
 
     6 tetrahedral angles replaced.
 NAtoms=      8 NQM=      8 NQMF=      0 NMic=      0 NMicF=      0 NTot=      8.
                    Isotopes and Nuclear Properties:
 (Nuclear quadrupole moments (NQMom) in fm**2, nuclear magnetic moments (NMagM)
  in nuclear magnetons)

  Atom         1           2           3           4           5           6           7           8
 IAtWgt=          12          12           1           1           1           1           1           1
 AtmWgt=  12.0000000  12.0000000   1.0078250   1.0078250   1.0078250   1.0078250   1.0078250   1.0078250
 NucSpn=           0           0           1           1           1           1           1           1
 AtZEff=   0.0000000   0.0000000   0.0000000   0.0000000   0.0000000   0.0000000   0.0000000   0.0000000
 NQMom=    0.0000000   0.0000000   0.0000000   0.0000000   0.0000000   0.0000000   0.0000000   0.0000000
 NMagM=    0.0000000   0.0000000   2.7928460   2.7928460   2.7928460   2.7928460   2.7928460   2.7928460
 Leave Link  101 at Fri May 17 11:36:37 2024, MaxMem=   33554432 cpu:       0.2
 (Enter /programs/64bit/g09/g09-gfortran/bin/l103.exe)

 GradGradGradGradGradGradGradGradGradGradGradGradGradGradGradGradGradGrad
 Berny optimization.
 Initialization pass.
                           ----------------------------
                           !    Initial Parameters    !
                           ! (Angstroms and Degrees)  !
 --------------------------                            --------------------------
 ! Name  Definition              Value          Derivative Info.                !
 --------------------------------------------------------------------------------
 ! R1    R(1,2)                  1.45           estimate D2E/DX2                !
 ! R2    R(1,3)                  1.089          estimate D2E/DX2                !
 ! R3    R(1,4)                  1.089          estimate D2E/DX2                !
 ! R4    R(1,5)                  1.089          estimate D2E/DX2                !
 ! R5    R(2,6)                  1.089          estimate D2E/DX2                !
 ! R6    R(2,7)                  1.089          estimate D2E/DX2                !
 ! R7    R(2,8)                  1.089          estimate D2E/DX2                !
 ! A1    A(2,1,3)              109.4712         estimate D2E/DX2                !
 ! A2    A(2,1,4)              109.4712         estimate D2E/DX2                !
 ! A3    A(2,1,5)              109.4712         estimate D2E/DX2                !
 ! A4    A(3,1,4)               56.251          estimate D2E/DX2                !
 ! A5    A(3,1,5)               92.4784         estimate D2E/DX2                !
 ! A6    A(4,1,5)              136.3999         estimate D2E/DX2                !
 ! A7    A(1,2,6)              109.4712         estimate D2E/DX2                !
 ! A8    A(1,2,7)              109.4712         estimate D2E/DX2                !
 ! A9    A(1,2,8)              109.4712         estimate D2E/DX2                !
 ! A10   A(6,2,7)              109.4712         estimate D2E/DX2                !
 ! A11   A(6,2,8)              109.4712         estimate D2E/DX2                !
 ! A12   A(7,2,8)              109.4712         estimate D2E/DX2                !
 ! D1    D(3,1,2,6)            180.0            estimate D2E/DX2                !
 ! D2    D(3,1,2,7)            -60.0            estimate D2E/DX2                !
 ! D3    D(3,1,2,8)             60.0            estimate D2E/DX2                !
 ! D4    D(4,1,2,6)            120.0            estimate D2E/DX2                !
 ! D5    D(4,1,2,7)           -120.0            estimate D2E/DX2                !
 ! D6    D(4,1,2,8)              0.0            estimate D2E/DX2                !
 ! D7    D(5,1,2,6)            -80.0            estimate D2E/DX2                !
 ! D8    D(5,1,2,7)             40.0            estimate D2E/DX2                !
 ! D9    D(5,1,2,8)            160.0            estimate D2E/DX2                !
 --------------------------------------------------------------------------------
 Trust Radius=3.00D-01 FncErr=1.00D-07 GrdErr=1.00D-06
 Number of steps in this run=  38 maximum allowed number of steps= 100.
 GradGradGradGradGradGradGradGradGradGradGradGradGradGradGradGradGradGrad

 Leave Link  103 at Fri May 17 11:36:37 2024, MaxMem=   33554432 cpu:       0.0
 (Enter /programs/64bit/g09/g09-gfortran/bin/l202.exe)
                          Input orientation:                          
 ---------------------------------------------------------------------
 Center     Atomic      Atomic             Coordinates (Angstroms)
 Number     Number       Type             X           Y           Z
 ---------------------------------------------------------------------
      1          6           0        0.000000    0.000000    0.000000
      2          6           0        0.000000    0.000000    1.450000
      3          1           0        1.026719    0.000000   -0.363000
      4          1           0        0.513360    0.889165   -0.363000
      5          1           0       -0.178288   -1.011121   -0.363000
      6          1           0       -1.026719    0.000000    1.813000
      7          1           0        0.513360   -0.889165    1.813000
      8          1           0        0.513360    0.889165    1.813000
 ---------------------------------------------------------------------
                    Distance matrix (angstroms):
                    1          2          3          4          5
     1  C    0.000000
     2  C    1.450000   0.000000
     3  H    1.089000   2.083536   0.000000
     4  H    1.089000   2.083536   1.026719   0.000000
     5  H    1.089000   2.083536   1.573025   2.022242   0.000000
     6  H    2.083536   1.089000   2.991920   2.810237   2.545030
     7  H    2.083536   1.089000   2.406061   2.810237   2.286531
     8  H    2.083536   1.089000   2.406061   2.176000   2.970596
                    6          7          8
     6  H    0.000000
     7  H    1.778330   0.000000
     8  H    1.778330   1.778330   0.000000
 Stoichiometry    C2H6
 Framework group  C1[X(C2H6)]
 Deg. of freedom    18
 Full point group                 C1      NOp   1
 Largest Abelian subgroup         C1      NOp   1
 Largest concise Abelian subgroup C1      NOp   1
                         Standard orientation:                         
 ---------------------------------------------------------------------
 Center     Atomic      Atomic             Coordinates (Angstroms)
 Number     Number       Type             X           Y           Z
 ---------------------------------------------------------------------
      1          6           0        0.707968   -0.077820   -0.155306
      2          6           0       -0.728579    0.014884    0.018585
      3          1           0        1.207065    0.405775    0.683121
      4          1           0        1.133529    0.923571   -0.200412
      5          1           0        1.047707   -1.066007    0.151264
      6          1           0       -1.227676   -0.468710   -0.819842
      7          1           0       -1.014676   -0.479705    0.945651
      8          1           0       -1.022282    1.062691    0.060544
 ---------------------------------------------------------------------
 Rotational constants (GHZ):     81.7792085     22.7039219     21.2978012
 Leave Link  202 at Fri May 17 11:36:37 2024, MaxMem=   33554432 cpu:       0.0
 (Enter /programs/64bit/g09/g09-gfortran/bin/l301.exe)
 Standard basis: 6-31G(d,p) (6D, 7F)
 Ernie: Thresh=  0.10000D-02 Tol=  0.10000D-05 Strict=F.
 There are    60 symmetry adapted basis functions of A   symmetry.
 Integral buffers will be    131072 words long.
 Raffenetti 2 integral format.
 Two-electron integral symmetry is turned on.
    60 basis functions,    98 primitive gaussians,    60 cartesian basis functions
     9 alpha electrons        9 beta electrons
       nuclear repulsion energy        43.6351800099 Hartrees.
 IExCor=  402 DFT=T Ex+Corr=B3LYP ExCW=0 ScaHFX=  0.200000
 ScaDFX=  0.800000  0.720000  1.000000  0.810000 ScalE2=  1.000000  1.000000
 IRadAn=      0 IRanWt=     -1 IRanGd=            0 ICorTp=0
 NAtoms=    8 NActive=    8 NUniq=    8 SFac= 7.50D-01 NAtFMM=   80 NAOKFM=F Big=F
 Leave Link  301 at Fri May 17 11:36:37 2024, MaxMem=   33554432 cpu:       0.0
 (Enter /programs/64bit/g09/g09-gfortran/bin/l302.exe)
 NPDir=0 NMtPBC=     1 NCelOv=     1 NCel=       1 NClECP=     1 NCelD=      1
         NCelK=      1 NCelE2=     1 NClLst=     1 CellRange=     0.0.
 One-electron integrals computed using PRISM.
 NBasis=    60 RedAO= T  NBF=    60
 NBsUse=    60 1.00D-06 NBFU=    60
 Precomputing XC quadrature grid using
 IXCGrd= 2 IRadAn=           0 IRanWt=          -1 IRanGd=           0 AccXCQ= 1.00D-10.
 NRdTot=     492 NPtTot=       62180 NUsed=       65741 NTot=       65773
 NSgBfM=    60    60    60    60    60 NAtAll=     8     8.
 Leave Link  302 at Fri May 17 11:36:38 2024, MaxMem=   33554432 cpu:       0.1
 (Enter /programs/64bit/g09/g09-gfortran/bin/l303.exe)
 DipDrv:  MaxL=1.
 Leave Link  303 at Fri May 17 11:36:38 2024, MaxMem=   33554432 cpu:       0.0
 (Enter /programs/64bit/g09/g09-gfortran/bin/l401.exe)
 Harris functional with IExCor=  402 diagonalized for initial guess.
 ExpMin= 1.61D-01 ExpMax= 3.05D+03 ExpMxC= 4.57D+02 IAcc=1 IRadAn=         1 AccDes= 0.00D+00
 HarFok:  IExCor=  402 AccDes= 0.00D+00 IRadAn=         1 IDoV= 1
 ScaDFX=  1.000000  1.000000  1.000000  1.000000
 FoFCou: FMM=F IPFlag=           0 FMFlag=      100000 FMFlg1=           0
         NFxFlg=           0 DoJE=T BraDBF=F KetDBF=T FulRan=T
         Omega=  0.000000  0.000000  1.000000  0.000000  0.000000 ICntrl=     500 IOpCl=  0
         NMat0=    1 NMatS0=    1 NMatT0=    0 NMatD0=    1 NMtDS0=    0 NMtDT0=    0
         I1Cent=           4 NGrid=           0.
 Petite list used in FoFCou.
 Harris En= -79.7996553444845    
 Initial guess orbital symmetries:
       Occupied  (A) (A) (A) (A) (A) (A) (A) (A) (A)
       Virtual   (A) (A) (A) (A) (A) (A) (A) (A) (A) (A) (A) (A)
                 (A) (A) (A) (A) (A) (A) (A) (A) (A) (A) (A) (A)
                 (A) (A) (A) (A) (A) (A) (A) (A) (A) (A) (A) (A)
                 (A) (A) (A) (A) (A) (A) (A) (A) (A) (A) (A) (A)
                 (A) (A) (A)
 The electronic state of the initial guess is 1-A.
 Leave Link  401 at Fri May 17 11:36:38 2024, MaxMem=   33554432 cpu:       0.5
 (Enter /programs/64bit/g09/g09-gfortran/bin/l502.exe)
 Closed shell SCF:
 Requested convergence on RMS density matrix=1.00D-08 within 128 cycles.
 Requested convergence on MAX density matrix=1.00D-06.
 Requested convergence on             energy=1.00D-06.
 No special actions if energy rises.
 Using DIIS extrapolation, IDIIS=  1040.
 Integral symmetry usage will be decided dynamically.
        65656 words used for storage of precomputed grid.
 Keep R1 ints in memory in canonical form, NReq=2651001.
 IEnd=       95424 IEndB=       95424 NGot=    33554432 MDV=    31803916
 LenX=    31803916 LenY=    31799875
 Symmetry not used in FoFDir.
 MinBra= 0 MaxBra= 2 Meth= 1.
 IRaf=       0 NMat=   1 IRICut=       1 DoRegI=T DoRafI=F ISym2E= 0 JSym2E=0.
 Integral accuracy reduced to 1.0D-05 until final iterations.

 Cycle   1  Pass 0  IDiag  1:
 E= -79.5561352043232    
 DIIS: error= 4.20D-02 at cycle   1 NSaved=   1.
 NSaved= 1 IEnMin= 1 EnMin= -79.5561352043232     IErMin= 1 ErrMin= 4.20D-02
 ErrMax= 4.20D-02 EMaxC= 1.00D-01 BMatC= 1.51D-01 BMatP= 1.51D-01
 IDIUse=3 WtCom= 5.80D-01 WtEn= 4.20D-01
 Coeff-Com:  0.100D+01
 Coeff-En:   0.100D+01
 Coeff:      0.100D+01
 Gap=     0.227 Goal=   None    Shift=    0.000
 GapD=    0.227 DampG=1.000 DampE=0.500 DampFc=0.5000 IDamp=-1.
 Damping current iteration by 5.00D-01
 RMSDP=1.70D-02 MaxDP=3.55D-01              OVMax= 2.86D-01

 Cycle   2  Pass 0  IDiag  1:
 E= -79.6238519594239     Delta-E=       -0.067716755101 Rises=F Damp=T
 DIIS: error= 1.01D-02 at cycle   2 NSaved=   2.
 NSaved= 2 IEnMin= 2 EnMin= -79.6238519594239     IErMin= 2 ErrMin= 1.01D-02
 ErrMax= 1.01D-02 EMaxC= 1.00D-01 BMatC= 6.01D-03 BMatP= 1.51D-01
 IDIUse=3 WtCom= 8.99D-01 WtEn= 1.01D-01
 Coeff-Com:  0.121D+00 0.879D+00
 Coeff-En:   0.209D+00 0.791D+00
 Coeff:      0.130D+00 0.870D+00
 Gap=     0.308 Goal=   None    Shift=    0.000
 RMSDP=3.02D-03 MaxDP=7.87D-02 DE=-6.77D-02 OVMax= 1.77D-01

 Cycle   3  Pass 0  IDiag  1:
 E= -79.7221602765304     Delta-E=       -0.098308317106 Rises=F Damp=F
 DIIS: error= 2.24D-03 at cycle   3 NSaved=   3.
 NSaved= 3 IEnMin= 3 EnMin= -79.7221602765304     IErMin= 3 ErrMin= 2.24D-03
 ErrMax= 2.24D-03 EMaxC= 1.00D-01 BMatC= 4.47D-04 BMatP= 6.01D-03
 IDIUse=3 WtCom= 9.78D-01 WtEn= 2.24D-02
 Coeff-Com:  0.217D-01 0.185D+00 0.794D+00
 Coeff-En:   0.000D+00 0.000D+00 0.100D+01
 Coeff:      0.213D-01 0.181D+00 0.798D+00
 Gap=     0.314 Goal=   None    Shift=    0.000
 RMSDP=6.73D-04 MaxDP=1.25D-02 DE=-9.83D-02 OVMax= 1.40D-02

 Cycle   4  Pass 0  IDiag  1:
 E= -79.7225392700683     Delta-E=       -0.000378993538 Rises=F Damp=F
 DIIS: error= 8.35D-04 at cycle   4 NSaved=   4.
 NSaved= 4 IEnMin= 4 EnMin= -79.7225392700683     IErMin= 4 ErrMin= 8.35D-04
 ErrMax= 8.35D-04 EMaxC= 1.00D-01 BMatC= 1.06D-04 BMatP= 4.47D-04
 IDIUse=3 WtCom= 9.92D-01 WtEn= 8.35D-03
 Coeff-Com:  0.269D-02 0.133D-01 0.322D+00 0.662D+00
 Coeff-En:   0.000D+00 0.000D+00 0.891D-01 0.911D+00
 Coeff:      0.267D-02 0.132D-01 0.320D+00 0.664D+00
 Gap=     0.315 Goal=   None    Shift=    0.000
 RMSDP=2.17D-04 MaxDP=3.70D-03 DE=-3.79D-04 OVMax= 4.41D-03

 Cycle   5  Pass 0  IDiag  1:
 E= -79.7226423979685     Delta-E=       -0.000103127900 Rises=F Damp=F
 DIIS: error= 2.71D-04 at cycle   5 NSaved=   5.
 NSaved= 5 IEnMin= 5 EnMin= -79.7226423979685     IErMin= 5 ErrMin= 2.71D-04
 ErrMax= 2.71D-04 EMaxC= 1.00D-01 BMatC= 7.60D-06 BMatP= 1.06D-04
 IDIUse=3 WtCom= 9.97D-01 WtEn= 2.71D-03
 Coeff-Com:  0.543D-03-0.388D-02 0.104D+00 0.298D+00 0.601D+00
 Coeff-En:   0.000D+00 0.000D+00 0.000D+00 0.000D+00 0.100D+01
 Coeff:      0.542D-03-0.387D-02 0.104D+00 0.297D+00 0.602D+00
 Gap=     0.315 Goal=   None    Shift=    0.000
 RMSDP=4.10D-05 MaxDP=6.37D-04 DE=-1.03D-04 OVMax= 7.06D-04

 Cycle   6  Pass 0  IDiag  1:
 E= -79.7226493924592     Delta-E=       -0.000006994491 Rises=F Damp=F
 DIIS: error= 3.94D-05 at cycle   6 NSaved=   6.
 NSaved= 6 IEnMin= 6 EnMin= -79.7226493924592     IErMin= 6 ErrMin= 3.94D-05
 ErrMax= 3.94D-05 EMaxC= 1.00D-01 BMatC= 1.13D-07 BMatP= 7.60D-06
 IDIUse=1 WtCom= 1.00D+00 WtEn= 0.00D+00
 Coeff-Com:  0.261D-03-0.155D-02 0.214D-01 0.687D-01 0.189D+00 0.722D+00
 Coeff:      0.261D-03-0.155D-02 0.214D-01 0.687D-01 0.189D+00 0.722D+00
 Gap=     0.315 Goal=   None    Shift=    0.000
 RMSDP=6.15D-06 MaxDP=6.67D-05 DE=-6.99D-06 OVMax= 1.01D-04

 Initial convergence to 1.0D-05 achieved.  Increase integral accuracy.
 Cycle   7  Pass 1  IDiag  1:
 E= -79.7226441432755     Delta-E=        0.000005249184 Rises=F Damp=F
 DIIS: error= 4.91D-06 at cycle   1 NSaved=   1.
 NSaved= 1 IEnMin= 1 EnMin= -79.7226441432755     IErMin= 1 ErrMin= 4.91D-06
 ErrMax= 4.91D-06 EMaxC= 1.00D-01 BMatC= 3.76D-09 BMatP= 3.76D-09
 IDIUse=1 WtCom= 1.00D+00 WtEn= 0.00D+00
 Coeff-Com:  0.100D+01
 Coeff:      0.100D+01
 Gap=     0.315 Goal=   None    Shift=    0.000
 RMSDP=6.15D-06 MaxDP=6.67D-05 DE= 5.25D-06 OVMax= 3.02D-05

 Cycle   8  Pass 1  IDiag  1:
 E= -79.7226441457531     Delta-E=       -0.000000002478 Rises=F Damp=F
 DIIS: error= 3.33D-06 at cycle   2 NSaved=   2.
 NSaved= 2 IEnMin= 2 EnMin= -79.7226441457531     IErMin= 2 ErrMin= 3.33D-06
 ErrMax= 3.33D-06 EMaxC= 1.00D-01 BMatC= 1.67D-09 BMatP= 3.76D-09
 IDIUse=1 WtCom= 1.00D+00 WtEn= 0.00D+00
 Coeff-Com:  0.381D+00 0.619D+00
 Coeff:      0.381D+00 0.619D+00
 Gap=     0.315 Goal=   None    Shift=    0.000
 RMSDP=1.07D-06 MaxDP=2.23D-05 DE=-2.48D-09 OVMax= 2.06D-05

 Cycle   9  Pass 1  IDiag  1:
 E= -79.7226441473224     Delta-E=       -0.000000001569 Rises=F Damp=F
 DIIS: error= 1.65D-06 at cycle   3 NSaved=   3.
 NSaved= 3 IEnMin= 3 EnMin= -79.7226441473224     IErMin= 3 ErrMin= 1.65D-06
 ErrMax= 1.65D-06 EMaxC= 1.00D-01 BMatC= 2.35D-10 BMatP= 1.67D-09
 IDIUse=1 WtCom= 1.00D+00 WtEn= 0.00D+00
 Coeff-Com:  0.669D-01 0.286D+00 0.647D+00
 Coeff:      0.669D-01 0.286D+00 0.647D+00
 Gap=     0.315 Goal=   None    Shift=    0.000
 RMSDP=3.16D-07 MaxDP=5.36D-06 DE=-1.57D-09 OVMax= 6.08D-06

 Cycle  10  Pass 1  IDiag  1:
 E= -79.7226441475581     Delta-E=       -0.000000000236 Rises=F Damp=F
 DIIS: error= 3.63D-07 at cycle   4 NSaved=   4.
 NSaved= 4 IEnMin= 4 EnMin= -79.7226441475581     IErMin= 4 ErrMin= 3.63D-07
 ErrMax= 3.63D-07 EMaxC= 1.00D-01 BMatC= 9.14D-12 BMatP= 2.35D-10
 IDIUse=1 WtCom= 1.00D+00 WtEn= 0.00D+00
 Coeff-Com: -0.733D-02 0.512D-01 0.223D+00 0.733D+00
 Coeff:     -0.733D-02 0.512D-01 0.223D+00 0.733D+00
 Gap=     0.315 Goal=   None    Shift=    0.000
 RMSDP=5.81D-08 MaxDP=8.15D-07 DE=-2.36D-10 OVMax= 8.79D-07

 Cycle  11  Pass 1  IDiag  1:
 E= -79.7226441475670     Delta-E=       -0.000000000009 Rises=F Damp=F
 DIIS: error= 5.20D-08 at cycle   5 NSaved=   5.
 NSaved= 5 IEnMin= 5 EnMin= -79.7226441475670     IErMin= 5 ErrMin= 5.20D-08
 ErrMax= 5.20D-08 EMaxC= 1.00D-01 BMatC= 3.92D-13 BMatP= 9.14D-12
 IDIUse=1 WtCom= 1.00D+00 WtEn= 0.00D+00
 Coeff-Com: -0.448D-02 0.144D-01 0.766D-01 0.300D+00 0.613D+00
 Coeff:     -0.448D-02 0.144D-01 0.766D-01 0.300D+00 0.613D+00
 Gap=     0.315 Goal=   None    Shift=    0.000
 RMSDP=1.09D-08 MaxDP=1.60D-07 DE=-8.82D-12 OVMax= 1.88D-07

 Cycle  12  Pass 1  IDiag  1:
 E= -79.7226441475677     Delta-E=       -0.000000000001 Rises=F Damp=F
 DIIS: error= 1.35D-08 at cycle   6 NSaved=   6.
 NSaved= 6 IEnMin= 6 EnMin= -79.7226441475677     IErMin= 6 ErrMin= 1.35D-08
 ErrMax= 1.35D-08 EMaxC= 1.00D-01 BMatC= 1.95D-14 BMatP= 3.92D-13
 IDIUse=1 WtCom= 1.00D+00 WtEn= 0.00D+00
 Coeff-Com: -0.143D-02 0.317D-02 0.195D-01 0.822D-01 0.246D+00 0.650D+00
 Coeff:     -0.143D-02 0.317D-02 0.195D-01 0.822D-01 0.246D+00 0.650D+00
 Gap=     0.315 Goal=   None    Shift=    0.000
 RMSDP=2.71D-09 MaxDP=5.01D-08 DE=-6.96D-13 OVMax= 5.03D-08

 SCF Done:  E(RB3LYP) =  -79.7226441476     A.U. after   12 cycles
             Convg  =    0.2705D-08             -V/T =  2.0063
 KE= 7.922510898681D+01 PE=-2.710441939272D+02 EE= 6.846126078292D+01
 Leave Link  502 at Fri May 17 11:36:45 2024, MaxMem=   33554432 cpu:       6.8
 (Enter /programs/64bit/g09/g09-gfortran/bin/l601.exe)
 Copying SCF densities to generalized density rwf, IOpCl= 0 IROHF=0.

 **********************************************************************

            Population analysis using the SCF density.

 **********************************************************************

 Orbital symmetries:
       Occupied  (A) (A) (A) (A) (A) (A) (A) (A) (A)
       Virtual   (A) (A) (A) (A) (A) (A) (A) (A) (A) (A) (A) (A)
                 (A) (A) (A) (A) (A) (A) (A) (A) (A) (A) (A) (A)
                 (A) (A) (A) (A) (A) (A) (A) (A) (A) (A) (A) (A)
                 (A) (A) (A) (A) (A) (A) (A) (A) (A) (A) (A) (A)
                 (A) (A) (A)
 The electronic state is 1-A.
 Alpha  occ. eigenvalues --  -10.16437 -10.16329  -0.78831  -0.63949  -0.48560
 Alpha  occ. eigenvalues --   -0.41432  -0.38043  -0.35445  -0.23799
 Alpha virt. eigenvalues --    0.07716   0.11845   0.13929   0.15626   0.18490
 Alpha virt. eigenvalues --    0.23534   0.26655   0.48135   0.55104   0.57162
 Alpha virt. eigenvalues --    0.59996   0.70981   0.74474   0.82348   0.82929
 Alpha virt. eigenvalues --    0.83921   0.89977   0.93246   0.95405   1.01332
 Alpha virt. eigenvalues --    1.28143   1.32356   1.52492   1.67690   1.81588
 Alpha virt. eigenvalues --    1.87094   1.93682   2.00101   2.05180   2.06447
 Alpha virt. eigenvalues --    2.08308   2.17360   2.27286   2.33456   2.38487
 Alpha virt. eigenvalues --    2.51279   2.58481   2.66780   2.70245   2.73213
 Alpha virt. eigenvalues --    2.90598   2.93423   3.14780   3.20926   3.29914
 Alpha virt. eigenvalues --    3.35690   3.42314   3.47755   3.69595   4.34747
 Alpha virt. eigenvalues --    4.61861
          Condensed to atoms (all electrons):
              1          2          3          4          5          6
     1  C    5.022498   0.403603   0.267240   0.368060   0.401925  -0.046232
     2  C    0.403603   4.841597  -0.047312  -0.028694  -0.043054   0.398278
     3  H    0.267240  -0.047312   0.879051  -0.146433  -0.041677   0.009929
     4  H    0.368060  -0.028694  -0.146433   0.716548  -0.019300  -0.004381
     5  H    0.401925  -0.043054  -0.041677  -0.019300   0.582685  -0.005911
     6  H   -0.046232   0.398278   0.009929  -0.004381  -0.005911   0.605167
     7  H   -0.057447   0.400384  -0.021551   0.012142  -0.000713  -0.040628
     8  H   -0.037558   0.391122  -0.005109  -0.009738   0.006655  -0.029194
              7          8
     1  C   -0.057447  -0.037558
     2  C    0.400384   0.391122
     3  H   -0.021551  -0.005109
     4  H    0.012142  -0.009738
     5  H   -0.000713   0.006655
     6  H   -0.040628  -0.029194
     7  H    0.642694  -0.029012
     8  H   -0.029012   0.618969
 Mulliken atomic charges:
              1
     1  C   -0.322089
     2  C   -0.315924
     3  H    0.105862
     4  H    0.111795
     5  H    0.119389
     6  H    0.112972
     7  H    0.094131
     8  H    0.093864
 Sum of Mulliken atomic charges =  -0.00000
 Mulliken charges with hydrogens summed into heavy atoms:
              1
     1  C    0.014957
     2  C   -0.014957
 Sum of Mulliken charges with hydrogens summed into heavy atoms =  -0.00000
 Electronic spatial extent (au):  <R**2>=            103.6491
 Charge=             -0.0000 electrons
 Dipole moment (field-independent basis, Debye):
    X=              0.2550    Y=              0.4455    Z=              0.9359  Tot=              1.0674
 Quadrupole moment (field-independent basis, Debye-Ang):
   XX=            -15.2730   YY=            -13.5233   ZZ=            -16.3235
   XY=              0.7306   XZ=              1.4231   YZ=              0.0336
 Traceless Quadrupole moment (field-independent basis, Debye-Ang):
   XX=             -0.2331   YY=              1.5166   ZZ=             -1.2835
   XY=              0.7306   XZ=              1.4231   YZ=              0.0336
 Octapole moment (field-independent basis, Debye-Ang**2):
  XXX=              0.9534  YYY=              0.8198  ZZZ=              1.0668  XYY=              1.1827
  XXY=              1.0757  XXZ=              1.5062  XZZ=             -1.7056  YZZ=             -0.4778
  YYZ=              0.8160  XYZ=             -0.1212
 Hexadecapole moment (field-independent basis, Debye-Ang**3):
 XXXX=            -84.7580 YYYY=            -29.2324 ZZZZ=            -28.1724 XXXY=              1.9335
 XXXZ=              3.1584 YYYX=              0.1131 YYYZ=             -0.1543 ZZZX=              1.5258
 ZZZY=              0.0996 XXYY=            -17.5484 XXZZ=            -19.8029 YYZZ=            -10.0059
 XXYZ=              0.2523 YYXZ=              1.0214 ZZXY=              0.5292
 N-N= 4.363518000993D+01 E-N=-2.710441941348D+02  KE= 7.922510898681D+01
 No NMR shielding tensors so no spin-rotation constants.
 Leave Link  601 at Fri May 17 11:36:45 2024, MaxMem=   33554432 cpu:       0.1
 (Enter /programs/64bit/g09/g09-gfortran/bin/l701.exe)
 Compute integral first derivatives.
 ... and contract with generalized density number  0.
 Leave Link  701 at Fri May 17 11:36:45 2024, MaxMem=   33554432 cpu:       0.1
 (Enter /programs/64bit/g09/g09-gfortran/bin/l702.exe)
 L702 exits ... SP integral derivatives will be done elsewhere.
 Leave Link  702 at Fri May 17 11:36:45 2024, MaxMem=   33554432 cpu:       0.0
 (Enter /programs/64bit/g09/g09-gfortran/bin/l703.exe)
 Compute integral first derivatives, UseDBF=F ICtDFT=           0.
 Integral derivatives from FoFDir, PRISM(SPDF).
 Calling FoFJK, ICntrl=      2127 FMM=F ISym2X=0 I1Cent= 0 IOpClX= 0 NMat=1 NMatS=1 NMatT=0.
 FoFCou: FMM=F IPFlag=           0 FMFlag=      100000 FMFlg1=         800
         NFxFlg=           0 DoJE=F BraDBF=F KetDBF=F FulRan=T
         Omega=  0.000000  0.000000  1.000000  0.000000  0.000000 ICntrl=    2127 IOpCl=  0
         NMat0=    1 NMatS0=    1 NMatT0=    0 NMatD0=    1 NMtDS0=    0 NMtDT0=    0
         I1Cent=           0 NGrid=           0.
 Symmetry not used in FoFCou.
 Leave Link  703 at Fri May 17 11:36:47 2024, MaxMem=   33554432 cpu:       1.6
 (Enter /programs/64bit/g09/g09-gfortran/bin/l716.exe)
 Dipole        = 1.00322744D-01 1.75291020D-01 3.68200354D-01
 ***** Axes restored to original set *****
 -------------------------------------------------------------------
 Center     Atomic                   Forces (Hartrees/Bohr)
 Number     Number              X              Y              Z
 -------------------------------------------------------------------
      1        6           0.032047773   -0.009146677   -0.018675709
      2        6           0.003136482   -0.000337256    0.032591171
      3        1           0.058110515   -0.053543812    0.018299481
      4        1          -0.066802210    0.046295572   -0.033743808
      5        1          -0.023132796    0.016534028   -0.028813693
      6        1          -0.001805448    0.001413251    0.007925427
      7        1          -0.000649444   -0.002713182    0.012694564
      8        1          -0.000904872    0.001498076    0.009722568
 -------------------------------------------------------------------
 Cartesian Forces:  Max     0.066802210 RMS     0.028008977
 Leave Link  716 at Fri May 17 11:36:47 2024, MaxMem=   33554432 cpu:       0.0
 (Enter /programs/64bit/g09/g09-gfortran/bin/l103.exe)

 GradGradGradGradGradGradGradGradGradGradGradGradGradGradGradGradGradGrad
 Berny optimization.
 Internal  Forces:  Max     0.062931610 RMS     0.030243446
 Search for a local minimum.
 Step number   1 out of a maximum of   38
 All quantities printed in internal units (Hartrees-Bohrs-Radians)
 RMS Force = .30243D-01 SwitMx=.10000D-02 MixMth= 1
 Mixed Optimization -- RFO/linear search
 Second derivative matrix not updated -- first step.
     Eigenvalues ---    0.01427   0.04177   0.06496   0.06496   0.07697
     Eigenvalues ---    0.16000   0.16000   0.16000   0.16000   0.16000
     Eigenvalues ---    0.16000   0.34928   0.34928   0.34928   0.34928
     Eigenvalues ---    0.34928   0.34928   0.382451000.000001000.00000
     Eigenvalues --- 1000.000001000.000001000.000001000.000001000.00000
     Eigenvalues --- 1000.000001000.000001000.00000
 RFO step:  Lambda=-1.08180543D-01 EMin= 1.42735158D-02
 Linear search not attempted -- first point.
 Maximum step size (   0.300) exceeded in Quadratic search.
    -- Step size scaled by   0.413
 Iteration  1 RMS(Cart)=  0.06810364 RMS(Int)=  0.00503479
 Iteration  2 RMS(Cart)=  0.00273102 RMS(Int)=  0.00344465
 Iteration  3 RMS(Cart)=  0.00001616 RMS(Int)=  0.00344463
 Iteration  4 RMS(Cart)=  0.00000010 RMS(Int)=  0.00344463
 Variable       Old X    -DE/DX   Delta X   Delta X   Delta X     New X
                                 (Linear)    (Quad)   (Total)
    R1        2.74010   0.06293   0.00000   0.05292   0.05292   2.79303
    R2        2.05791   0.04869   0.00000   0.04392   0.04392   2.10183
    R3        2.05791   0.01756   0.00000   0.01584   0.01584   2.07375
    R4        2.05791  -0.00196   0.00000  -0.00177  -0.00177   2.05614
    R5        2.05791   0.00435   0.00000   0.00392   0.00392   2.06183
    R6        2.05791   0.00614   0.00000   0.00554   0.00554   2.06345
    R7        2.05791   0.00404   0.00000   0.00364   0.00364   2.06155
    A1        1.91063  -0.06063   0.00000  -0.08241  -0.07816   1.83247
    A2        1.91063   0.03833   0.00000   0.07433   0.06558   1.97621
    A3        1.91063   0.03426   0.00000   0.06262   0.05466   1.96529
    A4        0.98177   0.05893   0.00000   0.13381   0.14063   1.12240
    A5        1.61405   0.00977   0.00000   0.02241   0.02728   1.64134
    A6        2.38063  -0.03810   0.00000  -0.05047  -0.06023   2.32039
    A7        1.91063   0.00495   0.00000   0.00696   0.00690   1.91753
    A8        1.91063   0.01376   0.00000   0.02179   0.02163   1.93227
    A9        1.91063   0.00912   0.00000   0.01407   0.01395   1.92458
   A10        1.91063  -0.00949   0.00000  -0.01468  -0.01477   1.89586
   A11        1.91063  -0.00887   0.00000  -0.01488  -0.01490   1.89573
   A12        1.91063  -0.00948   0.00000  -0.01326  -0.01347   1.89716
    D1        3.14159   0.01860   0.00000   0.03892   0.03825  -3.10334
    D2       -1.04720   0.01844   0.00000   0.03854   0.03786  -1.00934
    D3        1.04720   0.02085   0.00000   0.04426   0.04366   1.09086
    D4        2.09440  -0.04049   0.00000  -0.10397  -0.10262   1.99177
    D5       -2.09440  -0.04065   0.00000  -0.10435  -0.10302  -2.19741
    D6       -0.00000  -0.03825   0.00000  -0.09862  -0.09721  -0.09721
    D7       -1.39626   0.01864   0.00000   0.05615   0.05543  -1.34084
    D8        0.69813   0.01848   0.00000   0.05578   0.05503   0.75316
    D9        2.79253   0.02088   0.00000   0.06150   0.06084   2.85336
         Item               Value     Threshold  Converged?
 Maximum Force            0.062932     0.000450     NO 
 RMS     Force            0.030243     0.000300     NO 
 Maximum Displacement     0.156310     0.001800     NO 
 RMS     Displacement     0.067218     0.001200     NO 
 Predicted change in Energy=-3.999042D-02
 GradGradGradGradGradGradGradGradGradGradGradGradGradGradGradGradGradGrad

 Leave Link  103 at Fri May 17 11:36:47 2024, MaxMem=   33554432 cpu:       0.0
 (Enter /programs/64bit/g09/g09-gfortran/bin/l202.exe)
                          Input orientation:                          
 ---------------------------------------------------------------------
 Center     Atomic      Atomic             Coordinates (Angstroms)
 Number     Number       Type             X           Y           Z
 ---------------------------------------------------------------------
      1          6           0        0.018346   -0.003874   -0.014384
      2          6           0        0.010185   -0.002564    1.463599
      3          1           0        1.093450   -0.046703   -0.296152
      4          1           0        0.434102    0.915552   -0.445716
      5          1           0       -0.209660   -0.981976   -0.432970
      6          1           0       -1.017987   -0.000816    1.828706
      7          1           0        0.517151   -0.887658    1.853352
      8          1           0        0.516204    0.886082    1.843564
 ---------------------------------------------------------------------
                    Distance matrix (angstroms):
                    1          2          3          4          5
     1  C    0.000000
     2  C    1.478006   0.000000
     3  H    1.112239   2.066914   0.000000
     4  H    1.097381   2.160584   1.176030   0.000000
     5  H    1.088064   2.145822   1.609830   2.003798   0.000000
     6  H    2.114469   1.091074   2.995879   2.849787   2.594464
     7  H    2.125633   1.091931   2.379011   2.923042   2.400920
     8  H    2.119400   1.090926   2.404513   2.290941   3.033006
                    6          7          8
     6  H    0.000000
     7  H    1.773060   0.000000
     8  H    1.772160   1.773767   0.000000
 Stoichiometry    C2H6
 Framework group  C1[X(C2H6)]
 Deg. of freedom    18
 Full point group                 C1      NOp   1
 Largest Abelian subgroup         C1      NOp   1
 Largest concise Abelian subgroup C1      NOp   1
                         Standard orientation:                         
 ---------------------------------------------------------------------
 Center     Atomic      Atomic             Coordinates (Angstroms)
 Number     Number       Type             X           Y           Z
 ---------------------------------------------------------------------
      1          6           0        0.725876   -0.070302   -0.137134
      2          6           0       -0.742292    0.011012    0.012444
      3          1           0        1.135439    0.408053    0.779659
      4          1           0        1.200940    0.908147   -0.282726
      5          1           0        1.117375   -1.055242    0.108843
      6          1           0       -1.228778   -0.475021   -0.834637
      7          1           0       -1.064884   -0.483812    0.930810
      8          1           0       -1.061595    1.053618    0.046193
 ---------------------------------------------------------------------
 Rotational constants (GHZ):     81.2353455     21.7423505     20.6024319
 Leave Link  202 at Fri May 17 11:36:47 2024, MaxMem=   33554432 cpu:       0.0
 (Enter /programs/64bit/g09/g09-gfortran/bin/l301.exe)
 Standard basis: 6-31G(d,p) (6D, 7F)
 Ernie: Thresh=  0.10000D-02 Tol=  0.10000D-05 Strict=F.
 There are    60 symmetry adapted basis functions of A   symmetry.
 Integral buffers will be    131072 words long.
 Raffenetti 2 integral format.
 Two-electron integral symmetry is turned on.
    60 basis functions,    98 primitive gaussians,    60 cartesian basis functions
     9 alpha electrons        9 beta electrons
       nuclear repulsion energy        43.0160900381 Hartrees.
 IExCor=  402 DFT=T Ex+Corr=B3LYP ExCW=0 ScaHFX=  0.200000
 ScaDFX=  0.800000  0.720000  1.000000  0.810000 ScalE2=  1.000000  1.000000
 IRadAn=      0 IRanWt=     -1 IRanGd=            0 ICorTp=0
 NAtoms=    8 NActive=    8 NUniq=    8 SFac= 7.50D-01 NAtFMM=   80 NAOKFM=F Big=F
 Leave Link  301 at Fri May 17 11:36:47 2024, MaxMem=   33554432 cpu:       0.0
 (Enter /programs/64bit/g09/g09-gfortran/bin/l302.exe)
 NPDir=0 NMtPBC=     1 NCelOv=     1 NCel=       1 NClECP=     1 NCelD=      1
         NCelK=      1 NCelE2=     1 NClLst=     1 CellRange=     0.0.
 One-electron integrals computed using PRISM.
 NBasis=    60 RedAO= T  NBF=    60
 NBsUse=    60 1.00D-06 NBFU=    60
 Precomputing XC quadrature grid using
 IXCGrd= 2 IRadAn=           0 IRanWt=          -1 IRanGd=           0 AccXCQ= 1.00D-10.
 NRdTot=     492 NPtTot=       62180 NUsed=       65741 NTot=       65773
 NSgBfM=    60    60    60    60    60 NAtAll=     8     8.
 Leave Link  302 at Fri May 17 11:36:47 2024, MaxMem=   33554432 cpu:       0.0
 (Enter /programs/64bit/g09/g09-gfortran/bin/l303.exe)
 DipDrv:  MaxL=1.
 Leave Link  303 at Fri May 17 11:36:47 2024, MaxMem=   33554432 cpu:       0.0
 (Enter /programs/64bit/g09/g09-gfortran/bin/l401.exe)
 Initial guess read from the read-write file.
 B after Tr=     0.000000    0.000000    0.000000
         Rot=    1.000000    0.000000    0.000000    0.000000 Ang=   0.00 deg.
 Guess basis will be translated and rotated to current coordinates.
 Initial guess orbital symmetries:
       Occupied  (A) (A) (A) (A) (A) (A) (A) (A) (A)
       Virtual   (A) (A) (A) (A) (A) (A) (A) (A) (A) (A) (A) (A)
                 (A) (A) (A) (A) (A) (A) (A) (A) (A) (A) (A) (A)
                 (A) (A) (A) (A) (A) (A) (A) (A) (A) (A) (A) (A)
                 (A) (A) (A) (A) (A) (A) (A) (A) (A) (A) (A) (A)
                 (A) (A) (A)
 The electronic state of the initial guess is 1-A.
 Generating alternative initial guess.
 Harris functional with IExCor=  402 diagonalized for initial guess.
 ExpMin= 1.61D-01 ExpMax= 3.05D+03 ExpMxC= 4.57D+02 IAcc=1 IRadAn=         1 AccDes= 0.00D+00
 HarFok:  IExCor=  402 AccDes= 0.00D+00 IRadAn=         1 IDoV= 1
 ScaDFX=  1.000000  1.000000  1.000000  1.000000
 FoFCou: FMM=F IPFlag=           0 FMFlag=      100000 FMFlg1=           0
         NFxFlg=           0 DoJE=T BraDBF=F KetDBF=T FulRan=T
         Omega=  0.000000  0.000000  1.000000  0.000000  0.000000 ICntrl=     500 IOpCl=  0
         NMat0=    1 NMatS0=    1 NMatT0=    0 NMatD0=    1 NMtDS0=    0 NMtDT0=    0
         I1Cent=           4 NGrid=           0.
 Petite list used in FoFCou.
 Harris En= -79.8283052035355    
 Leave Link  401 at Fri May 17 11:36:47 2024, MaxMem=   33554432 cpu:       0.0
 (Enter /programs/64bit/g09/g09-gfortran/bin/l502.exe)
 Closed shell SCF:
 Requested convergence on RMS density matrix=1.00D-08 within 128 cycles.
 Requested convergence on MAX density matrix=1.00D-06.
 Requested convergence on             energy=1.00D-06.
 No special actions if energy rises.
 Using DIIS extrapolation, IDIIS=  1040.
 Integral symmetry usage will be decided dynamically.
        65656 words used for storage of precomputed grid.
 Keep R1 ints in memory in canonical form, NReq=2651001.
 IEnd=       95424 IEndB=       95424 NGot=    33554432 MDV=    31803916
 LenX=    31803916 LenY=    31799875
 Symmetry not used in FoFDir.
 MinBra= 0 MaxBra= 2 Meth= 1.
 IRaf=       0 NMat=   1 IRICut=       1 DoRegI=T DoRafI=F ISym2E= 0 JSym2E=0.
 Integral accuracy reduced to 1.0D-05 until final iterations.

 Cycle   1  Pass 0  IDiag  1:
 E= -79.7557171930361    
 DIIS: error= 5.73D-03 at cycle   1 NSaved=   1.
 NSaved= 1 IEnMin= 1 EnMin= -79.7557171930361     IErMin= 1 ErrMin= 5.73D-03
 ErrMax= 5.73D-03 EMaxC= 1.00D-01 BMatC= 2.92D-03 BMatP= 2.92D-03
 IDIUse=3 WtCom= 9.43D-01 WtEn= 5.73D-02
 Coeff-Com:  0.100D+01
 Coeff-En:   0.100D+01
 Coeff:      0.100D+01
 Gap=     0.354 Goal=   None    Shift=    0.000
 GapD=    0.354 DampG=1.000 DampE=1.000 DampFc=1.0000 IDamp=-1.
 RMSDP=1.41D-03 MaxDP=1.94D-02              OVMax= 3.20D-02

 Cycle   2  Pass 0  IDiag  1:
 E= -79.7602380006754     Delta-E=       -0.004520807639 Rises=F Damp=F
 DIIS: error= 1.01D-03 at cycle   2 NSaved=   2.
 NSaved= 2 IEnMin= 2 EnMin= -79.7602380006754     IErMin= 2 ErrMin= 1.01D-03
 ErrMax= 1.01D-03 EMaxC= 1.00D-01 BMatC= 1.28D-04 BMatP= 2.92D-03
 IDIUse=3 WtCom= 9.90D-01 WtEn= 1.01D-02
 Coeff-Com:  0.296D-01 0.970D+00
 Coeff-En:   0.000D+00 0.100D+01
 Coeff:      0.293D-01 0.971D+00
 Gap=     0.348 Goal=   None    Shift=    0.000
 RMSDP=3.91D-04 MaxDP=7.25D-03 DE=-4.52D-03 OVMax= 9.50D-03

 Cycle   3  Pass 0  IDiag  1:
 E= -79.7602193157052     Delta-E=        0.000018684970 Rises=F Damp=F
 DIIS: error= 1.11D-03 at cycle   3 NSaved=   3.
 NSaved= 3 IEnMin= 2 EnMin= -79.7602380006754     IErMin= 2 ErrMin= 1.01D-03
 ErrMax= 1.11D-03 EMaxC= 1.00D-01 BMatC= 1.66D-04 BMatP= 1.28D-04
 IDIUse=3 WtCom= 2.31D-01 WtEn= 7.69D-01
 Coeff-Com: -0.338D-01 0.544D+00 0.490D+00
 Coeff-En:   0.000D+00 0.530D+00 0.470D+00
 Coeff:     -0.780D-02 0.533D+00 0.474D+00
 Gap=     0.350 Goal=   None    Shift=    0.000
 RMSDP=2.13D-04 MaxDP=4.36D-03 DE= 1.87D-05 OVMax= 4.82D-03

 Cycle   4  Pass 0  IDiag  1:
 E= -79.7603849550937     Delta-E=       -0.000165639388 Rises=F Damp=F
 DIIS: error= 9.94D-05 at cycle   4 NSaved=   4.
 NSaved= 4 IEnMin= 4 EnMin= -79.7603849550937     IErMin= 4 ErrMin= 9.94D-05
 ErrMax= 9.94D-05 EMaxC= 1.00D-01 BMatC= 5.26D-07 BMatP= 1.28D-04
 IDIUse=1 WtCom= 1.00D+00 WtEn= 0.00D+00
 Coeff-Com: -0.799D-02 0.892D-01 0.108D+00 0.811D+00
 Coeff:     -0.799D-02 0.892D-01 0.108D+00 0.811D+00
 Gap=     0.350 Goal=   None    Shift=    0.000
 RMSDP=1.74D-05 MaxDP=2.32D-04 DE=-1.66D-04 OVMax= 4.01D-04

 Cycle   5  Pass 0  IDiag  1:
 E= -79.7603854550532     Delta-E=       -0.000000499960 Rises=F Damp=F
 DIIS: error= 4.14D-05 at cycle   5 NSaved=   5.
 NSaved= 5 IEnMin= 5 EnMin= -79.7603854550532     IErMin= 5 ErrMin= 4.14D-05
 ErrMax= 4.14D-05 EMaxC= 1.00D-01 BMatC= 1.06D-07 BMatP= 5.26D-07
 IDIUse=1 WtCom= 1.00D+00 WtEn= 0.00D+00
 Coeff-Com: -0.190D-02 0.118D-01 0.217D-01 0.366D+00 0.602D+00
 Coeff:     -0.190D-02 0.118D-01 0.217D-01 0.366D+00 0.602D+00
 Gap=     0.350 Goal=   None    Shift=    0.000
 RMSDP=5.37D-06 MaxDP=8.94D-05 DE=-5.00D-07 OVMax= 1.00D-04

 Initial convergence to 1.0D-05 achieved.  Increase integral accuracy.
 Cycle   6  Pass 1  IDiag  1:
 E= -79.7603953838620     Delta-E=       -0.000009928809 Rises=F Damp=F
 DIIS: error= 7.98D-06 at cycle   1 NSaved=   1.
 NSaved= 1 IEnMin= 1 EnMin= -79.7603953838620     IErMin= 1 ErrMin= 7.98D-06
 ErrMax= 7.98D-06 EMaxC= 1.00D-01 BMatC= 6.59D-09 BMatP= 6.59D-09
 IDIUse=1 WtCom= 1.00D+00 WtEn= 0.00D+00
 Coeff-Com:  0.100D+01
 Coeff:      0.100D+01
 Gap=     0.350 Goal=   None    Shift=    0.000
 RMSDP=5.37D-06 MaxDP=8.94D-05 DE=-9.93D-06 OVMax= 4.09D-05

 Cycle   7  Pass 1  IDiag  1:
 E= -79.7603953849566     Delta-E=       -0.000000001095 Rises=F Damp=F
 DIIS: error= 9.57D-06 at cycle   2 NSaved=   2.
 NSaved= 2 IEnMin= 2 EnMin= -79.7603953849566     IErMin= 1 ErrMin= 7.98D-06
 ErrMax= 9.57D-06 EMaxC= 1.00D-01 BMatC= 5.97D-09 BMatP= 6.59D-09
 IDIUse=1 WtCom= 1.00D+00 WtEn= 0.00D+00
 Coeff-Com:  0.487D+00 0.513D+00
 Coeff:      0.487D+00 0.513D+00
 Gap=     0.350 Goal=   None    Shift=    0.000
 RMSDP=1.19D-06 MaxDP=2.05D-05 DE=-1.09D-09 OVMax= 2.31D-05

 Cycle   8  Pass 1  IDiag  1:
 E= -79.7603953907613     Delta-E=       -0.000000005805 Rises=F Damp=F
 DIIS: error= 1.19D-06 at cycle   3 NSaved=   3.
 NSaved= 3 IEnMin= 3 EnMin= -79.7603953907613     IErMin= 3 ErrMin= 1.19D-06
 ErrMax= 1.19D-06 EMaxC= 1.00D-01 BMatC= 1.00D-10 BMatP= 5.97D-09
 IDIUse=1 WtCom= 1.00D+00 WtEn= 0.00D+00
 Coeff-Com:  0.325D-01 0.125D+00 0.843D+00
 Coeff:      0.325D-01 0.125D+00 0.843D+00
 Gap=     0.350 Goal=   None    Shift=    0.000
 RMSDP=1.73D-07 MaxDP=2.47D-06 DE=-5.80D-09 OVMax= 2.88D-06

 Cycle   9  Pass 1  IDiag  1:
 E= -79.7603953908545     Delta-E=       -0.000000000093 Rises=F Damp=F
 DIIS: error= 2.74D-07 at cycle   4 NSaved=   4.
 NSaved= 4 IEnMin= 4 EnMin= -79.7603953908545     IErMin= 4 ErrMin= 2.74D-07
 ErrMax= 2.74D-07 EMaxC= 1.00D-01 BMatC= 6.17D-12 BMatP= 1.00D-10
 IDIUse=1 WtCom= 1.00D+00 WtEn= 0.00D+00
 Coeff-Com: -0.624D-02 0.256D-01 0.292D+00 0.689D+00
 Coeff:     -0.624D-02 0.256D-01 0.292D+00 0.689D+00
 Gap=     0.350 Goal=   None    Shift=    0.000
 RMSDP=4.92D-08 MaxDP=8.77D-07 DE=-9.32D-11 OVMax= 1.02D-06

 Cycle  10  Pass 1  IDiag  1:
 E= -79.7603953908592     Delta-E=       -0.000000000005 Rises=F Damp=F
 DIIS: error= 9.99D-08 at cycle   5 NSaved=   5.
 NSaved= 5 IEnMin= 5 EnMin= -79.7603953908592     IErMin= 5 ErrMin= 9.99D-08
 ErrMax= 9.99D-08 EMaxC= 1.00D-01 BMatC= 1.07D-12 BMatP= 6.17D-12
 IDIUse=1 WtCom= 1.00D+00 WtEn= 0.00D+00
 Coeff-Com: -0.474D-02 0.657D-02 0.103D+00 0.361D+00 0.534D+00
 Coeff:     -0.474D-02 0.657D-02 0.103D+00 0.361D+00 0.534D+00
 Gap=     0.350 Goal=   None    Shift=    0.000
 RMSDP=1.85D-08 MaxDP=3.73D-07 DE=-4.70D-12 OVMax= 4.18D-07

 Cycle  11  Pass 1  IDiag  1:
 E= -79.7603953908607     Delta-E=       -0.000000000001 Rises=F Damp=F
 DIIS: error= 7.96D-09 at cycle   6 NSaved=   6.
 NSaved= 6 IEnMin= 6 EnMin= -79.7603953908607     IErMin= 6 ErrMin= 7.96D-09
 ErrMax= 7.96D-09 EMaxC= 1.00D-01 BMatC= 5.90D-15 BMatP= 1.07D-12
 IDIUse=1 WtCom= 1.00D+00 WtEn= 0.00D+00
 Coeff-Com: -0.704D-03 0.206D-03 0.735D-02 0.386D-01 0.103D+00 0.852D+00
 Coeff:     -0.704D-03 0.206D-03 0.735D-02 0.386D-01 0.103D+00 0.852D+00
 Gap=     0.350 Goal=   None    Shift=    0.000
 RMSDP=1.64D-09 MaxDP=2.23D-08 DE=-1.49D-12 OVMax= 3.42D-08

 SCF Done:  E(RB3LYP) =  -79.7603953909     A.U. after   11 cycles
             Convg  =    0.1645D-08             -V/T =  2.0083
 KE= 7.910536877575D+01 PE=-2.697988347794D+02 EE= 6.791698057472D+01
 Leave Link  502 at Fri May 17 11:36:53 2024, MaxMem=   33554432 cpu:       5.3
 (Enter /programs/64bit/g09/g09-gfortran/bin/l701.exe)
 Compute integral first derivatives.
 ... and contract with generalized density number  0.
 Leave Link  701 at Fri May 17 11:36:53 2024, MaxMem=   33554432 cpu:       0.1
 (Enter /programs/64bit/g09/g09-gfortran/bin/l702.exe)
 L702 exits ... SP integral derivatives will be done elsewhere.
 Leave Link  702 at Fri May 17 11:36:53 2024, MaxMem=   33554432 cpu:       0.0
 (Enter /programs/64bit/g09/g09-gfortran/bin/l703.exe)
 Compute integral first derivatives, UseDBF=F ICtDFT=           0.
 Integral derivatives from FoFDir, PRISM(SPDF).
 Calling FoFJK, ICntrl=      2127 FMM=F ISym2X=0 I1Cent= 0 IOpClX= 0 NMat=1 NMatS=1 NMatT=0.
 FoFCou: FMM=F IPFlag=           0 FMFlag=      100000 FMFlg1=         800
         NFxFlg=           0 DoJE=F BraDBF=F KetDBF=F FulRan=T
         Omega=  0.000000  0.000000  1.000000  0.000000  0.000000 ICntrl=    2127 IOpCl=  0
         NMat0=    1 NMatS0=    1 NMatT0=    0 NMatD0=    1 NMtDS0=    0 NMtDT0=    0
         I1Cent=           0 NGrid=           0.
 Symmetry not used in FoFCou.
 Leave Link  703 at Fri May 17 11:36:55 2024, MaxMem=   33554432 cpu:       1.9
 (Enter /programs/64bit/g09/g09-gfortran/bin/l716.exe)
 Dipole        = 6.71721848D-02 1.22496007D-01 2.68438763D-01
 ***** Axes restored to original set *****
 -------------------------------------------------------------------
 Center     Atomic                   Forces (Hartrees/Bohr)
 Number     Number              X              Y              Z
 -------------------------------------------------------------------
      1        6           0.068668215   -0.003570866   -0.011970416
      2        6          -0.007111503    0.002052905    0.019146408
      3        1           0.028103220   -0.039603989    0.017953776
      4        1          -0.063886262    0.024842146   -0.022553375
      5        1          -0.022749405    0.015557386   -0.020684447
      6        1          -0.001455978    0.001154604    0.006842575
      7        1          -0.001062581   -0.001290032    0.005947740
      8        1          -0.000505706    0.000857846    0.005317738
 -------------------------------------------------------------------
 Cartesian Forces:  Max     0.068668215 RMS     0.024567688
 Leave Link  716 at Fri May 17 11:36:55 2024, MaxMem=   33554432 cpu:       0.0
 (Enter /programs/64bit/g09/g09-gfortran/bin/l103.exe)

 GradGradGradGradGradGradGradGradGradGradGradGradGradGradGradGradGradGrad
 Berny optimization.
 Using GEDIIS/GDIIS optimizer.
 Internal  Forces:  Max     0.049051233 RMS     0.020449917
 Search for a local minimum.
 Step number   2 out of a maximum of   38
 All quantities printed in internal units (Hartrees-Bohrs-Radians)
 RMS Force = .20450D-01 SwitMx=.10000D-02 MixMth= 1
 Mixed Optimization -- RFO/linear search
 Update second derivatives using D2CorX and points    1    2
 DE= -3.78D-02 DEPred=-4.00D-02 R= 9.44D-01
 SS=  1.41D+00  RLast= 2.99D-01 DXNew= 5.0454D-01 8.9559D-01
 Trust test= 9.44D-01 RLast= 2.99D-01 DXMaxT set to 5.05D-01
 Use linear search instead of GDIIS.
 Linear search step of   0.597 exceeds DXMaxT=   0.505 but not scaled.
 Quartic linear search produced a step of  2.00000.
 Iteration  1 RMS(Cart)=  0.11425048 RMS(Int)=  0.02046130
 Iteration  2 RMS(Cart)=  0.01341770 RMS(Int)=  0.01275694
 Iteration  3 RMS(Cart)=  0.00029728 RMS(Int)=  0.01275369
 Iteration  4 RMS(Cart)=  0.00000280 RMS(Int)=  0.01275369
 Iteration  5 RMS(Cart)=  0.00000007 RMS(Int)=  0.01275369
 Variable       Old X    -DE/DX   Delta X   Delta X   Delta X     New X
                                 (Linear)    (Quad)   (Total)
    R1        2.79303   0.03731   0.10585   0.00000   0.10585   2.89888
    R2        2.10183   0.02414   0.08783   0.00000   0.08783   2.18966
    R3        2.07375   0.00548   0.03168   0.00000   0.03168   2.10542
    R4        2.05614  -0.00126  -0.00354   0.00000  -0.00354   2.05261
    R5        2.06183   0.00367   0.00784   0.00000   0.00784   2.06967
    R6        2.06345   0.00268   0.01108   0.00000   0.01108   2.07453
    R7        2.06155   0.00231   0.00728   0.00000   0.00728   2.06883
    A1        1.83247  -0.03254  -0.15632   0.00000  -0.14174   1.69074
    A2        1.97621   0.02114   0.13115   0.00000   0.09587   2.07208
    A3        1.96529   0.02044   0.10931   0.00000   0.07623   2.04152
    A4        1.12240   0.04905   0.28126   0.00000   0.29715   1.41954
    A5        1.64134   0.00911   0.05457   0.00000   0.06941   1.71075
    A6        2.32039  -0.03010  -0.12047   0.00000  -0.15689   2.16350
    A7        1.91753   0.00610   0.01380   0.00000   0.01349   1.93102
    A8        1.93227   0.00560   0.04327   0.00000   0.04237   1.97464
    A9        1.92458   0.00445   0.02790   0.00000   0.02718   1.95176
   A10        1.89586  -0.00596  -0.02954   0.00000  -0.03000   1.86586
   A11        1.89573  -0.00605  -0.02981   0.00000  -0.02991   1.86582
   A12        1.89716  -0.00462  -0.02694   0.00000  -0.02812   1.86905
    D1       -3.10334   0.01345   0.07651   0.00000   0.07609  -3.02725
    D2       -1.00934   0.01353   0.07572   0.00000   0.07521  -0.93413
    D3        1.09086   0.01430   0.08733   0.00000   0.08727   1.17813
    D4        1.99177  -0.03114  -0.20525   0.00000  -0.19940   1.79237
    D5       -2.19741  -0.03106  -0.20604   0.00000  -0.20029  -2.39770
    D6       -0.09721  -0.03029  -0.19443   0.00000  -0.18822  -0.28544
    D7       -1.34084   0.01557   0.11085   0.00000   0.10515  -1.23568
    D8        0.75316   0.01565   0.11006   0.00000   0.10427   0.85744
    D9        2.85336   0.01642   0.12167   0.00000   0.11633   2.96970
         Item               Value     Threshold  Converged?
 Maximum Force            0.049051     0.000450     NO 
 RMS     Force            0.020450     0.000300     NO 
 Maximum Displacement     0.284963     0.001800     NO 
 RMS     Displacement     0.118782     0.001200     NO 
 Predicted change in Energy=-3.804352D-02
 GradGradGradGradGradGradGradGradGradGradGradGradGradGradGradGradGradGrad

 Leave Link  103 at Fri May 17 11:36:55 2024, MaxMem=   33554432 cpu:       0.0
 (Enter /programs/64bit/g09/g09-gfortran/bin/l202.exe)
                          Input orientation:                          
 ---------------------------------------------------------------------
 Center     Atomic      Atomic             Coordinates (Angstroms)
 Number     Number       Type             X           Y           Z
 ---------------------------------------------------------------------
      1          6           0        0.056708   -0.004203   -0.051219
      2          6           0        0.031227   -0.005788    1.482588
      3          1           0        1.201313   -0.138949   -0.171006
      4          1           0        0.283306    0.948843   -0.581945
      5          1           0       -0.256324   -0.916884   -0.550055
      6          1           0       -0.999967   -0.002929    1.851565
      7          1           0        0.524850   -0.882709    1.921327
      8          1           0        0.520678    0.880661    1.898746
 ---------------------------------------------------------------------
                    Distance matrix (angstroms):
                    1          2          3          4          5
     1  C    0.000000
     2  C    1.534019   0.000000
     3  H    1.158718   2.030076   0.000000
     4  H    1.114143   2.288485   1.481520   0.000000
     5  H    1.086192   2.245979   1.695160   1.942461   0.000000
     6  H    2.176500   1.095223   2.992479   2.911122   2.675088
     7  H    2.209495   1.097792   2.321345   3.111158   2.592129
     8  H    2.191030   1.094779   2.405565   2.492955   3.135526
                    6          7          8
     6  H    0.000000
     7  H    1.761802   0.000000
     8  H    1.759352   1.763520   0.000000
 Stoichiometry    C2H6
 Framework group  C1[X(C2H6)]
 Deg. of freedom    18
 Full point group                 C1      NOp   1
 Largest Abelian subgroup         C1      NOp   1
 Largest concise Abelian subgroup C1      NOp   1
                         Standard orientation:                         
 ---------------------------------------------------------------------
 Center     Atomic      Atomic             Coordinates (Angstroms)
 Number     Number       Type             X           Y           Z
 ---------------------------------------------------------------------
      1          6           0        0.764011   -0.050717   -0.100663
      2          6           0       -0.765861    0.003969   -0.002089
      3          1           0        0.986246    0.380407    0.951655
      4          1           0        1.313881    0.868124   -0.408377
      5          1           0        1.231777   -1.022055    0.031664
      6          1           0       -1.226185   -0.476374   -0.872081
      7          1           0       -1.159197   -0.503729    0.888235
      8          1           0       -1.135424    1.034118    0.025413
 ---------------------------------------------------------------------
 Rotational constants (GHZ):     80.3640449     20.0410171     19.4222612
 Leave Link  202 at Fri May 17 11:36:55 2024, MaxMem=   33554432 cpu:       0.0
 (Enter /programs/64bit/g09/g09-gfortran/bin/l301.exe)
 Standard basis: 6-31G(d,p) (6D, 7F)
 Ernie: Thresh=  0.10000D-02 Tol=  0.10000D-05 Strict=F.
 There are    60 symmetry adapted basis functions of A   symmetry.
 Integral buffers will be    131072 words long.
 Raffenetti 2 integral format.
 Two-electron integral symmetry is turned on.
    60 basis functions,    98 primitive gaussians,    60 cartesian basis functions
     9 alpha electrons        9 beta electrons
       nuclear repulsion energy        41.9357207571 Hartrees.
 IExCor=  402 DFT=T Ex+Corr=B3LYP ExCW=0 ScaHFX=  0.200000
 ScaDFX=  0.800000  0.720000  1.000000  0.810000 ScalE2=  1.000000  1.000000
 IRadAn=      0 IRanWt=     -1 IRanGd=            0 ICorTp=0
 NAtoms=    8 NActive=    8 NUniq=    8 SFac= 7.50D-01 NAtFMM=   80 NAOKFM=F Big=F
 Leave Link  301 at Fri May 17 11:36:55 2024, MaxMem=   33554432 cpu:       0.0
 (Enter /programs/64bit/g09/g09-gfortran/bin/l302.exe)
 NPDir=0 NMtPBC=     1 NCelOv=     1 NCel=       1 NClECP=     1 NCelD=      1
         NCelK=      1 NCelE2=     1 NClLst=     1 CellRange=     0.0.
 One-electron integrals computed using PRISM.
 NBasis=    60 RedAO= T  NBF=    60
 NBsUse=    60 1.00D-06 NBFU=    60
 Precomputing XC quadrature grid using
 IXCGrd= 2 IRadAn=           0 IRanWt=          -1 IRanGd=           0 AccXCQ= 1.00D-10.
 NRdTot=     492 NPtTot=       62472 NUsed=       66033 NTot=       66065
 NSgBfM=    60    60    60    60    60 NAtAll=     8     8.
 Leave Link  302 at Fri May 17 11:36:55 2024, MaxMem=   33554432 cpu:       0.1
 (Enter /programs/64bit/g09/g09-gfortran/bin/l303.exe)
 DipDrv:  MaxL=1.
 Leave Link  303 at Fri May 17 11:36:55 2024, MaxMem=   33554432 cpu:       0.0
 (Enter /programs/64bit/g09/g09-gfortran/bin/l401.exe)
 Initial guess read from the read-write file.
 B after Tr=     0.000000    0.000000    0.000000
         Rot=    1.000000    0.000000    0.000000    0.000000 Ang=   0.00 deg.
 Guess basis will be translated and rotated to current coordinates.
 Initial guess orbital symmetries:
       Occupied  (A) (A) (A) (A) (A) (A) (A) (A) (A)
       Virtual   (A) (A) (A) (A) (A) (A) (A) (A) (A) (A) (A) (A)
                 (A) (A) (A) (A) (A) (A) (A) (A) (A) (A) (A) (A)
                 (A) (A) (A) (A) (A) (A) (A) (A) (A) (A) (A) (A)
                 (A) (A) (A) (A) (A) (A) (A) (A) (A) (A) (A) (A)
                 (A) (A) (A)
 The electronic state of the initial guess is 1-A.
 Generating alternative initial guess.
 Harris functional with IExCor=  402 diagonalized for initial guess.
 ExpMin= 1.61D-01 ExpMax= 3.05D+03 ExpMxC= 4.57D+02 IAcc=1 IRadAn=         1 AccDes= 0.00D+00
 HarFok:  IExCor=  402 AccDes= 0.00D+00 IRadAn=         1 IDoV= 1
 ScaDFX=  1.000000  1.000000  1.000000  1.000000
 FoFCou: FMM=F IPFlag=           0 FMFlag=      100000 FMFlg1=           0
         NFxFlg=           0 DoJE=T BraDBF=F KetDBF=T FulRan=T
         Omega=  0.000000  0.000000  1.000000  0.000000  0.000000 ICntrl=     500 IOpCl=  0
         NMat0=    1 NMatS0=    1 NMatT0=    0 NMatD0=    1 NMtDS0=    0 NMtDT0=    0
         I1Cent=           4 NGrid=           0.
 Petite list used in FoFCou.
 Harris En= -79.8560025915735    
 Leave Link  401 at Fri May 17 11:36:55 2024, MaxMem=   33554432 cpu:       0.0
 (Enter /programs/64bit/g09/g09-gfortran/bin/l502.exe)
 Closed shell SCF:
 Requested convergence on RMS density matrix=1.00D-08 within 128 cycles.
 Requested convergence on MAX density matrix=1.00D-06.
 Requested convergence on             energy=1.00D-06.
 No special actions if energy rises.
 Using DIIS extrapolation, IDIIS=  1040.
 Integral symmetry usage will be decided dynamically.
        65948 words used for storage of precomputed grid.
 Keep R1 ints in memory in canonical form, NReq=2651293.
 IEnd=       95716 IEndB=       95716 NGot=    33554432 MDV=    31803624
 LenX=    31803624 LenY=    31799583
 Symmetry not used in FoFDir.
 MinBra= 0 MaxBra= 2 Meth= 1.
 IRaf=       0 NMat=   1 IRICut=       1 DoRegI=T DoRafI=F ISym2E= 0 JSym2E=0.
 Integral accuracy reduced to 1.0D-05 until final iterations.

 Cycle   1  Pass 0  IDiag  1:
 E= -79.7911003869768    
 DIIS: error= 8.12D-03 at cycle   1 NSaved=   1.
 NSaved= 1 IEnMin= 1 EnMin= -79.7911003869768     IErMin= 1 ErrMin= 8.12D-03
 ErrMax= 8.12D-03 EMaxC= 1.00D-01 BMatC= 6.57D-03 BMatP= 6.57D-03
 IDIUse=3 WtCom= 9.19D-01 WtEn= 8.12D-02
 Coeff-Com:  0.100D+01
 Coeff-En:   0.100D+01
 Coeff:      0.100D+01
 Gap=     0.409 Goal=   None    Shift=    0.000
 GapD=    0.409 DampG=2.000 DampE=1.000 DampFc=2.0000 IDamp=-1.
 RMSDP=1.90D-03 MaxDP=2.72D-02              OVMax= 3.88D-02

 Cycle   2  Pass 0  IDiag  1:
 E= -79.8011214303235     Delta-E=       -0.010021043347 Rises=F Damp=F
 DIIS: error= 1.73D-03 at cycle   2 NSaved=   2.
 NSaved= 2 IEnMin= 2 EnMin= -79.8011214303235     IErMin= 2 ErrMin= 1.73D-03
 ErrMax= 1.73D-03 EMaxC= 1.00D-01 BMatC= 1.82D-04 BMatP= 6.57D-03
 IDIUse=3 WtCom= 9.83D-01 WtEn= 1.73D-02
 Coeff-Com:  0.568D-03 0.999D+00
 Coeff-En:   0.000D+00 0.100D+01
 Coeff:      0.558D-03 0.999D+00
 Gap=     0.388 Goal=   None    Shift=    0.000
 RMSDP=3.92D-04 MaxDP=5.91D-03 DE=-1.00D-02 OVMax= 9.29D-03

 Cycle   3  Pass 0  IDiag  1:
 E= -79.8011099607066     Delta-E=        0.000011469617 Rises=F Damp=F
 DIIS: error= 2.13D-03 at cycle   3 NSaved=   3.
 NSaved= 3 IEnMin= 2 EnMin= -79.8011214303235     IErMin= 2 ErrMin= 1.73D-03
 ErrMax= 2.13D-03 EMaxC= 1.00D-01 BMatC= 2.21D-04 BMatP= 1.82D-04
 IDIUse=3 WtCom= 1.78D-01 WtEn= 8.22D-01
 Coeff-Com: -0.291D-01 0.540D+00 0.489D+00
 Coeff-En:   0.000D+00 0.514D+00 0.486D+00
 Coeff:     -0.517D-02 0.519D+00 0.486D+00
 Gap=     0.390 Goal=   None    Shift=    0.000
 RMSDP=2.20D-04 MaxDP=3.77D-03 DE= 1.15D-05 OVMax= 4.91D-03

 Cycle   4  Pass 0  IDiag  1:
 E= -79.8013282817867     Delta-E=       -0.000218321080 Rises=F Damp=F
 DIIS: error= 1.94D-04 at cycle   4 NSaved=   4.
 NSaved= 4 IEnMin= 4 EnMin= -79.8013282817867     IErMin= 4 ErrMin= 1.94D-04
 ErrMax= 1.94D-04 EMaxC= 1.00D-01 BMatC= 2.30D-06 BMatP= 1.82D-04
 IDIUse=3 WtCom= 9.98D-01 WtEn= 1.94D-03
 Coeff-Com: -0.790D-02 0.963D-01 0.149D+00 0.763D+00
 Coeff-En:   0.000D+00 0.000D+00 0.000D+00 0.100D+01
 Coeff:     -0.789D-02 0.961D-01 0.148D+00 0.764D+00
 Gap=     0.390 Goal=   None    Shift=    0.000
 RMSDP=2.38D-05 MaxDP=3.51D-04 DE=-2.18D-04 OVMax= 5.02D-04

 Cycle   5  Pass 0  IDiag  1:
 E= -79.8013305012959     Delta-E=       -0.000002219509 Rises=F Damp=F
 DIIS: error= 3.29D-05 at cycle   5 NSaved=   5.
 NSaved= 5 IEnMin= 5 EnMin= -79.8013305012959     IErMin= 5 ErrMin= 3.29D-05
 ErrMax= 3.29D-05 EMaxC= 1.00D-01 BMatC= 9.19D-08 BMatP= 2.30D-06
 IDIUse=1 WtCom= 1.00D+00 WtEn= 0.00D+00
 Coeff-Com: -0.121D-02 0.700D-02 0.268D-01 0.254D+00 0.714D+00
 Coeff:     -0.121D-02 0.700D-02 0.268D-01 0.254D+00 0.714D+00
 Gap=     0.390 Goal=   None    Shift=    0.000
 RMSDP=5.95D-06 MaxDP=8.14D-05 DE=-2.22D-06 OVMax= 1.03D-04

 Initial convergence to 1.0D-05 achieved.  Increase integral accuracy.
 Cycle   6  Pass 1  IDiag  1:
 E= -79.8013506958305     Delta-E=       -0.000020194535 Rises=F Damp=F
 DIIS: error= 1.88D-05 at cycle   1 NSaved=   1.
 NSaved= 1 IEnMin= 1 EnMin= -79.8013506958305     IErMin= 1 ErrMin= 1.88D-05
 ErrMax= 1.88D-05 EMaxC= 1.00D-01 BMatC= 1.85D-08 BMatP= 1.85D-08
 IDIUse=1 WtCom= 1.00D+00 WtEn= 0.00D+00
 Coeff-Com:  0.100D+01
 Coeff:      0.100D+01
 Gap=     0.390 Goal=   None    Shift=    0.000
 RMSDP=5.95D-06 MaxDP=8.14D-05 DE=-2.02D-05 OVMax= 7.17D-05

 Cycle   7  Pass 1  IDiag  1:
 E= -79.8013506903838     Delta-E=        0.000000005447 Rises=F Damp=F
 DIIS: error= 1.84D-05 at cycle   2 NSaved=   2.
 NSaved= 2 IEnMin= 1 EnMin= -79.8013506958305     IErMin= 2 ErrMin= 1.84D-05
 ErrMax= 1.84D-05 EMaxC= 1.00D-01 BMatC= 2.41D-08 BMatP= 1.85D-08
 IDIUse=1 WtCom= 1.00D+00 WtEn= 0.00D+00
 Coeff-Com:  0.534D+00 0.466D+00
 Coeff:      0.534D+00 0.466D+00
 Gap=     0.390 Goal=   None    Shift=    0.000
 RMSDP=2.34D-06 MaxDP=3.48D-05 DE= 5.45D-09 OVMax= 4.20D-05

 Cycle   8  Pass 1  IDiag  1:
 E= -79.8013507153730     Delta-E=       -0.000000024989 Rises=F Damp=F
 DIIS: error= 1.21D-06 at cycle   3 NSaved=   3.
 NSaved= 3 IEnMin= 3 EnMin= -79.8013507153730     IErMin= 3 ErrMin= 1.21D-06
 ErrMax= 1.21D-06 EMaxC= 1.00D-01 BMatC= 9.25D-11 BMatP= 1.85D-08
 IDIUse=1 WtCom= 1.00D+00 WtEn= 0.00D+00
 Coeff-Com:  0.611D-01 0.888D-01 0.850D+00
 Coeff:      0.611D-01 0.888D-01 0.850D+00
 Gap=     0.390 Goal=   None    Shift=    0.000
 RMSDP=1.92D-07 MaxDP=2.18D-06 DE=-2.50D-08 OVMax= 3.40D-06

 Cycle   9  Pass 1  IDiag  1:
 E= -79.8013507154552     Delta-E=       -0.000000000082 Rises=F Damp=F
 DIIS: error= 4.90D-07 at cycle   4 NSaved=   4.
 NSaved= 4 IEnMin= 4 EnMin= -79.8013507154552     IErMin= 4 ErrMin= 4.90D-07
 ErrMax= 4.90D-07 EMaxC= 1.00D-01 BMatC= 1.40D-11 BMatP= 9.25D-11
 IDIUse=1 WtCom= 1.00D+00 WtEn= 0.00D+00
 Coeff-Com: -0.144D-02 0.136D-01 0.333D+00 0.655D+00
 Coeff:     -0.144D-02 0.136D-01 0.333D+00 0.655D+00
 Gap=     0.390 Goal=   None    Shift=    0.000
 RMSDP=6.24D-08 MaxDP=1.06D-06 DE=-8.21D-11 OVMax= 1.36D-06

 Cycle  10  Pass 1  IDiag  1:
 E= -79.8013507154669     Delta-E=       -0.000000000012 Rises=F Damp=F
 DIIS: error= 1.98D-07 at cycle   5 NSaved=   5.
 NSaved= 5 IEnMin= 5 EnMin= -79.8013507154669     IErMin= 5 ErrMin= 1.98D-07
 ErrMax= 1.98D-07 EMaxC= 1.00D-01 BMatC= 1.85D-12 BMatP= 1.40D-11
 IDIUse=1 WtCom= 1.00D+00 WtEn= 0.00D+00
 Coeff-Com: -0.496D-02 0.351D-03 0.995D-01 0.324D+00 0.581D+00
 Coeff:     -0.496D-02 0.351D-03 0.995D-01 0.324D+00 0.581D+00
 Gap=     0.390 Goal=   None    Shift=    0.000
 RMSDP=1.99D-08 MaxDP=3.16D-07 DE=-1.17D-11 OVMax= 4.26D-07

 Cycle  11  Pass 1  IDiag  1:
 E= -79.8013507154688     Delta-E=       -0.000000000002 Rises=F Damp=F
 DIIS: error= 7.05D-09 at cycle   6 NSaved=   6.
 NSaved= 6 IEnMin= 6 EnMin= -79.8013507154688     IErMin= 6 ErrMin= 7.05D-09
 ErrMax= 7.05D-09 EMaxC= 1.00D-01 BMatC= 5.04D-15 BMatP= 1.85D-12
 IDIUse=1 WtCom= 1.00D+00 WtEn= 0.00D+00
 Coeff-Com: -0.700D-03-0.298D-03 0.711D-02 0.261D-01 0.785D-01 0.889D+00
 Coeff:     -0.700D-03-0.298D-03 0.711D-02 0.261D-01 0.785D-01 0.889D+00
 Gap=     0.390 Goal=   None    Shift=    0.000
 RMSDP=1.52D-09 MaxDP=1.78D-08 DE=-1.93D-12 OVMax= 3.44D-08

 SCF Done:  E(RB3LYP) =  -79.8013507155     A.U. after   11 cycles
             Convg  =    0.1518D-08             -V/T =  2.0114
 KE= 7.890510037118D+01 PE=-2.675724124832D+02 EE= 6.693024063948D+01
 Leave Link  502 at Fri May 17 11:37:03 2024, MaxMem=   33554432 cpu:       7.0
 (Enter /programs/64bit/g09/g09-gfortran/bin/l701.exe)
 Compute integral first derivatives.
 ... and contract with generalized density number  0.
 Leave Link  701 at Fri May 17 11:37:03 2024, MaxMem=   33554432 cpu:       0.1
 (Enter /programs/64bit/g09/g09-gfortran/bin/l702.exe)
 L702 exits ... SP integral derivatives will be done elsewhere.
 Leave Link  702 at Fri May 17 11:37:03 2024, MaxMem=   33554432 cpu:       0.0
 (Enter /programs/64bit/g09/g09-gfortran/bin/l703.exe)
 Compute integral first derivatives, UseDBF=F ICtDFT=           0.
 Integral derivatives from FoFDir, PRISM(SPDF).
 Calling FoFJK, ICntrl=      2127 FMM=F ISym2X=0 I1Cent= 0 IOpClX= 0 NMat=1 NMatS=1 NMatT=0.
 FoFCou: FMM=F IPFlag=           0 FMFlag=      100000 FMFlg1=         800
         NFxFlg=           0 DoJE=F BraDBF=F KetDBF=F FulRan=T
         Omega=  0.000000  0.000000  1.000000  0.000000  0.000000 ICntrl=    2127 IOpCl=  0
         NMat0=    1 NMatS0=    1 NMatT0=    0 NMatD0=    1 NMtDS0=    0 NMtDT0=    0
         I1Cent=           0 NGrid=           0.
 Symmetry not used in FoFCou.
 Leave Link  703 at Fri May 17 11:37:03 2024, MaxMem=   33554432 cpu:       0.0
 (Enter /programs/64bit/g09/g09-gfortran/bin/l716.exe)
 Dipole        = 1.49348031D-02 5.68048357D-02 1.38625662D-01
 ***** Axes restored to original set *****
 -------------------------------------------------------------------
 Center     Atomic                   Forces (Hartrees/Bohr)
 Number     Number              X              Y              Z
 -------------------------------------------------------------------
      1        6           0.103235317    0.001567128    0.004849937
      2        6          -0.023281992    0.005817647    0.002102171
      3        1          -0.015661766   -0.015524326    0.000911448
      4        1          -0.044468392   -0.003073142    0.001731435
      5        1          -0.018219199    0.009790224   -0.006931920
      6        1          -0.000673972    0.000914563    0.004306539
      7        1          -0.001138084    0.000348721   -0.004853255
      8        1           0.000208088    0.000159185   -0.002116355
 -------------------------------------------------------------------
 Cartesian Forces:  Max     0.103235317 RMS     0.024380683
 Leave Link  716 at Fri May 17 11:37:05 2024, MaxMem=   33554432 cpu:       0.0
 (Enter /programs/64bit/g09/g09-gfortran/bin/l103.exe)

 GradGradGradGradGradGradGradGradGradGradGradGradGradGradGradGradGradGrad
 Berny optimization.
 Using GEDIIS/GDIIS optimizer.
 Internal  Forces:  Max     0.021313025 RMS     0.010167234
 Search for a local minimum.
 Step number   3 out of a maximum of   38
 All quantities printed in internal units (Hartrees-Bohrs-Radians)
 RMS Force = .10167D-01 SwitMx=.10000D-02 MixMth= 1
 Mixed Optimization -- RFO/linear search
 Update second derivatives using D2CorX and points    2    3
 Use linear search instead of GDIIS.
     Eigenvalues ---    0.01427   0.03687   0.05970   0.06209   0.07710
     Eigenvalues ---    0.15290   0.16000   0.16000   0.16000   0.16001
     Eigenvalues ---    0.18119   0.34770   0.34928   0.34928   0.34928
     Eigenvalues ---    0.34928   0.36528   0.372571000.000001000.00000
     Eigenvalues --- 1000.000001000.000001000.000001000.000001000.00000
     Eigenvalues --- 1000.000001000.000001000.00000
 RFO step:  Lambda=-3.67206586D-02 EMin= 1.42726595D-02
 Quartic linear search produced a step of  0.69563.
 Maximum step size (   0.505) exceeded in Quadratic search.
    -- Step size scaled by   0.835
 Iteration  1 RMS(Cart)=  0.06991853 RMS(Int)=  0.05066685
 Iteration  2 RMS(Cart)=  0.03407308 RMS(Int)=  0.01775092
 Iteration  3 RMS(Cart)=  0.00184365 RMS(Int)=  0.01763191
 Iteration  4 RMS(Cart)=  0.00005001 RMS(Int)=  0.01763184
 Iteration  5 RMS(Cart)=  0.00000207 RMS(Int)=  0.01763184
 Iteration  6 RMS(Cart)=  0.00000009 RMS(Int)=  0.01763184
 Variable       Old X    -DE/DX   Delta X   Delta X   Delta X     New X
                                 (Linear)    (Quad)   (Total)
    R1        2.89888  -0.00015   0.07363  -0.04721   0.02642   2.92530
    R2        2.18966  -0.01376   0.06110  -0.07849  -0.01739   2.17227
    R3        2.10542  -0.01250   0.02203  -0.04923  -0.02719   2.07823
    R4        2.05261   0.00021  -0.00246   0.00237  -0.00009   2.05252
    R5        2.06967   0.00209   0.00545   0.00209   0.00754   2.07722
    R6        2.07453  -0.00273   0.00770  -0.01273  -0.00502   2.06950
    R7        2.06883  -0.00058   0.00506  -0.00505   0.00002   2.06885
    A1        1.69074   0.00964  -0.09860   0.20117   0.10150   1.79224
    A2        2.07208   0.00025   0.06669  -0.04374  -0.02549   2.04659
    A3        2.04152   0.00564   0.05303  -0.00246   0.00326   2.04478
    A4        1.41954   0.01911   0.20671   0.09632   0.30025   1.71979
    A5        1.71075  -0.00079   0.04828   0.01820   0.06713   1.77787
    A6        2.16350  -0.00934  -0.10914   0.00889  -0.15934   2.00417
    A7        1.93102   0.00715   0.00938   0.03630   0.04571   1.97674
    A8        1.97464  -0.00642   0.02948  -0.05663  -0.02756   1.94708
    A9        1.95176  -0.00283   0.01890  -0.02965  -0.01124   1.94052
   A10        1.86586  -0.00005  -0.02087   0.01632  -0.00445   1.86141
   A11        1.86582  -0.00141  -0.02081   0.01031  -0.01055   1.85527
   A12        1.86905   0.00378  -0.01956   0.02828   0.00785   1.87690
    D1       -3.02725   0.00687   0.05293   0.02421   0.07814  -2.94911
    D2       -0.93413   0.00751   0.05232   0.03237   0.08540  -0.84873
    D3        1.17813   0.00571   0.06071   0.00637   0.06825   1.24638
    D4        1.79237  -0.02016  -0.13871  -0.19132  -0.32036   1.47200
    D5       -2.39770  -0.01951  -0.13933  -0.18316  -0.31310  -2.71080
    D6       -0.28544  -0.02131  -0.13093  -0.20916  -0.33025  -0.61569
    D7       -1.23568   0.01259   0.07315   0.15485   0.21745  -1.01823
    D8        0.85744   0.01324   0.07254   0.16302   0.22471   1.08215
    D9        2.96970   0.01144   0.08093   0.13701   0.20756  -3.10593
         Item               Value     Threshold  Converged?
 Maximum Force            0.021313     0.000450     NO 
 RMS     Force            0.010167     0.000300     NO 
 Maximum Displacement     0.291667     0.001800     NO 
 RMS     Displacement     0.092598     0.001200     NO 
 Predicted change in Energy=-2.436699D-02
 GradGradGradGradGradGradGradGradGradGradGradGradGradGradGradGradGradGrad

 Leave Link  103 at Fri May 17 11:37:05 2024, MaxMem=   33554432 cpu:       0.0
 (Enter /programs/64bit/g09/g09-gfortran/bin/l202.exe)
                          Input orientation:                          
 ---------------------------------------------------------------------
 Center     Atomic      Atomic             Coordinates (Angstroms)
 Number     Number       Type             X           Y           Z
 ---------------------------------------------------------------------
      1          6           0        0.176995   -0.016742   -0.049108
      2          6           0        0.037011    0.000456    1.492456
      3          1           0        1.295510   -0.235728   -0.198625
      4          1           0        0.128962    0.950581   -0.570103
      5          1           0       -0.285398   -0.844019   -0.579690
      6          1           0       -1.007984    0.006806    1.833365
      7          1           0        0.510832   -0.874790    1.949353
      8          1           0        0.505863    0.891481    1.922353
 ---------------------------------------------------------------------
                    Distance matrix (angstroms):
                    1          2          3          4          5
     1  C    0.000000
     2  C    1.548002   0.000000
     3  H    1.149515   2.121169   0.000000
     4  H    1.099753   2.272738   1.704746   0.000000
     5  H    1.086145   2.260724   1.736231   1.841840   0.000000
     6  H    2.224508   1.099215   3.081216   2.821350   2.658734
     7  H    2.200350   1.095134   2.374433   3.134560   2.651601
     8  H    2.195378   1.094787   2.528377   2.521484   3.146152
                    6          7          8
     6  H    0.000000
     7  H    1.759962   0.000000
     8  H    1.755649   1.766484   0.000000
 Stoichiometry    C2H6
 Framework group  C1[X(C2H6)]
 Deg. of freedom    18
 Full point group                 C1      NOp   1
 Largest Abelian subgroup         C1      NOp   1
 Largest concise Abelian subgroup C1      NOp   1
                         Standard orientation:                         
 ---------------------------------------------------------------------
 Center     Atomic      Atomic             Coordinates (Angstroms)
 Number     Number       Type             X           Y           Z
 ---------------------------------------------------------------------
      1          6           0        0.771678   -0.011463   -0.050522
      2          6           0       -0.775606    0.000210   -0.004836
      3          1           0        1.057898    0.118515    1.055176
      4          1           0        1.270463    0.881623   -0.454340
      5          1           0        1.253288   -0.953372   -0.296629
      6          1           0       -1.240170   -0.304928   -0.953174
      7          1           0       -1.160587   -0.676599    0.765254
      8          1           0       -1.157325    1.002278    0.215864
 ---------------------------------------------------------------------
 Rotational constants (GHZ):     80.4868099     19.4685557     19.2566793
 Leave Link  202 at Fri May 17 11:37:05 2024, MaxMem=   33554432 cpu:       0.0
 (Enter /programs/64bit/g09/g09-gfortran/bin/l301.exe)
 Standard basis: 6-31G(d,p) (6D, 7F)
 Ernie: Thresh=  0.10000D-02 Tol=  0.10000D-05 Strict=F.
 There are    60 symmetry adapted basis functions of A   symmetry.
 Integral buffers will be    131072 words long.
 Raffenetti 2 integral format.
 Two-electron integral symmetry is turned on.
    60 basis functions,    98 primitive gaussians,    60 cartesian basis functions
     9 alpha electrons        9 beta electrons
       nuclear repulsion energy        41.7226920900 Hartrees.
 IExCor=  402 DFT=T Ex+Corr=B3LYP ExCW=0 ScaHFX=  0.200000
 ScaDFX=  0.800000  0.720000  1.000000  0.810000 ScalE2=  1.000000  1.000000
 IRadAn=      0 IRanWt=     -1 IRanGd=            0 ICorTp=0
 NAtoms=    8 NActive=    8 NUniq=    8 SFac= 7.50D-01 NAtFMM=   80 NAOKFM=F Big=F
 Leave Link  301 at Fri May 17 11:37:05 2024, MaxMem=   33554432 cpu:       0.0
 (Enter /programs/64bit/g09/g09-gfortran/bin/l302.exe)
 NPDir=0 NMtPBC=     1 NCelOv=     1 NCel=       1 NClECP=     1 NCelD=      1
         NCelK=      1 NCelE2=     1 NClLst=     1 CellRange=     0.0.
 One-electron integrals computed using PRISM.
 NBasis=    60 RedAO= T  NBF=    60
 NBsUse=    60 1.00D-06 NBFU=    60
 Precomputing XC quadrature grid using
 IXCGrd= 2 IRadAn=           0 IRanWt=          -1 IRanGd=           0 AccXCQ= 1.00D-10.
 NRdTot=     492 NPtTot=       62472 NUsed=       66033 NTot=       66065
 NSgBfM=    60    60    60    60    60 NAtAll=     8     8.
 Leave Link  302 at Fri May 17 11:37:05 2024, MaxMem=   33554432 cpu:       0.2
 (Enter /programs/64bit/g09/g09-gfortran/bin/l303.exe)
 DipDrv:  MaxL=1.
 Leave Link  303 at Fri May 17 11:37:05 2024, MaxMem=   33554432 cpu:       0.0
 (Enter /programs/64bit/g09/g09-gfortran/bin/l401.exe)
 Initial guess read from the read-write file.
 B after Tr=     0.000000    0.000000    0.000000
[...]
 Coeff:     -0.493D-07 0.532D-07 0.337D-06 0.157D-05 0.609D-05-0.532D-04
 Coeff:     -0.174D-02-0.157D-02 0.610D-01 0.120D+00 0.822D+00
 Gap=     0.444 Goal=   None    Shift=    0.000
 RMSDP=2.67D-09 MaxDP=4.00D-08 DE=-2.56D-12 OVMax= 5.54D-08

 SCF Done:  E(RB3LYP) =  -79.8387392226     A.U. after   11 cycles
             Convg  =    0.2667D-08             -V/T =  2.0108
 KE= 7.898722728629D+01 PE=-2.681099461253D+02 EE= 6.714604013830D+01
 Leave Link  502 at Fri May 17 11:38:10 2024, MaxMem=   33554432 cpu:      13.5
 (Enter /programs/64bit/g09/g09-gfortran/bin/l701.exe)
 Compute integral first derivatives.
 ... and contract with generalized density number  0.
 Leave Link  701 at Fri May 17 11:38:10 2024, MaxMem=   33554432 cpu:       0.0
 (Enter /programs/64bit/g09/g09-gfortran/bin/l702.exe)
 L702 exits ... SP integral derivatives will be done elsewhere.
 Leave Link  702 at Fri May 17 11:38:10 2024, MaxMem=   33554432 cpu:       0.0
 (Enter /programs/64bit/g09/g09-gfortran/bin/l703.exe)
 Compute integral first derivatives, UseDBF=F ICtDFT=           0.
 Integral derivatives from FoFDir, PRISM(SPDF).
 Calling FoFJK, ICntrl=      2127 FMM=F ISym2X=0 I1Cent= 0 IOpClX= 0 NMat=1 NMatS=1 NMatT=0.
 FoFCou: FMM=F IPFlag=           0 FMFlag=      100000 FMFlg1=         800
         NFxFlg=           0 DoJE=F BraDBF=F KetDBF=F FulRan=T
         Omega=  0.000000  0.000000  1.000000  0.000000  0.000000 ICntrl=    2127 IOpCl=  0
         NMat0=    1 NMatS0=    1 NMatT0=    0 NMatD0=    1 NMtDS0=    0 NMtDT0=    0
         I1Cent=           0 NGrid=           0.
 Symmetry not used in FoFCou.
 Leave Link  703 at Fri May 17 11:38:12 2024, MaxMem=   33554432 cpu:       1.7
 (Enter /programs/64bit/g09/g09-gfortran/bin/l716.exe)
 Dipole        =-5.92051366D-06 5.34400676D-05 6.33851694D-05
 ***** Axes restored to original set *****
 -------------------------------------------------------------------
 Center     Atomic                   Forces (Hartrees/Bohr)
 Number     Number              X              Y              Z
 -------------------------------------------------------------------
      1        6           0.000017538    0.000112585    0.000057758
      2        6           0.000002664   -0.000044269    0.000024737
      3        1          -0.000007652   -0.000040435    0.000003953
      4        1          -0.000020103   -0.000024448   -0.000052197
      5        1           0.000002645   -0.000021973   -0.000018262
      6        1           0.000007049    0.000016498   -0.000003098
      7        1           0.000007687   -0.000002857   -0.000004964
      8        1          -0.000009828    0.000004899   -0.000007927
 -------------------------------------------------------------------
 Cartesian Forces:  Max     0.000112585 RMS     0.000032764
 Leave Link  716 at Fri May 17 11:38:12 2024, MaxMem=   33554432 cpu:       0.0
 (Enter /programs/64bit/g09/g09-gfortran/bin/l103.exe)

 GradGradGradGradGradGradGradGradGradGradGradGradGradGradGradGradGradGrad
 Berny optimization.
 Using GEDIIS/GDIIS optimizer.
 Internal  Forces:  Max     0.000072332 RMS     0.000019590
 Search for a local minimum.
 Step number  10 out of a maximum of   38
 All quantities printed in internal units (Hartrees-Bohrs-Radians)
 RMS Force = .19590D-04 SwitMx=.10000D-02 MixMth= 2
 Mixed Optimization -- En-DIIS/RFO-DIIS
 Swaping is turned off.
 Update second derivatives using D2CorX and points    5    6    7    8    9
                                                     10
 DE= -1.84D-06 DEPred=-1.33D-06 R= 1.39D+00
 SS=  1.41D+00  RLast= 2.32D-02 DXNew= 2.4000D+00 6.9538D-02
 Trust test= 1.39D+00 RLast= 2.32D-02 DXMaxT set to 1.43D+00
     Eigenvalues ---    0.00232   0.04374   0.05976   0.06223   0.06290
     Eigenvalues ---    0.13571   0.15474   0.16070   0.16184   0.16927
     Eigenvalues ---    0.19829   0.33834   0.34907   0.34920   0.34942
     Eigenvalues ---    0.35033   0.35840   0.385191000.000001000.00000
     Eigenvalues --- 1000.000001000.000001000.000001000.000001000.00000
     Eigenvalues --- 1000.000001000.000001000.00000
 En-DIIS/RFO-DIIS IScMMF=        0 using points:    10    9    8    7    6
 RFO step:  Lambda=-3.03299110D-08.
 DIIS coeffs:      1.40160     -0.39166     -0.11012      0.22336     -0.12317
 Iteration  1 RMS(Cart)=  0.00037679 RMS(Int)=  0.00000051
 Iteration  2 RMS(Cart)=  0.00000012 RMS(Int)=  0.00000050
 Variable       Old X    -DE/DX   Delta X   Delta X   Delta X     New X
                                  (DIIS)     (GDIIS)  (Total)
    R1        2.89126   0.00001   0.00006  -0.00006   0.00001   2.89126
    R2        2.06939  -0.00000   0.00004  -0.00006  -0.00002   2.06937
    R3        2.06939   0.00001  -0.00002   0.00004   0.00002   2.06941
    R4        2.06926   0.00002   0.00011  -0.00002   0.00009   2.06935
    R5        2.06941  -0.00001  -0.00002  -0.00000  -0.00002   2.06938
    R6        2.06940   0.00000  -0.00004   0.00005   0.00001   2.06941
    R7        2.06938  -0.00001   0.00002  -0.00004  -0.00002   2.06935
    A1        1.94404  -0.00002  -0.00025   0.00013  -0.00012   1.94392
    A2        1.94336   0.00007   0.00047   0.00017   0.00064   1.94400
    A3        1.94410  -0.00000   0.00007  -0.00024  -0.00017   1.94393
    A4        1.87586  -0.00000   0.00017   0.00008   0.00025   1.87610
    A5        1.87654  -0.00002  -0.00028  -0.00010  -0.00037   1.87617
    A6        1.87649  -0.00004  -0.00020  -0.00005  -0.00025   1.87624
    A7        1.94391   0.00000  -0.00003   0.00007   0.00005   1.94395
    A8        1.94418  -0.00001  -0.00026   0.00013  -0.00013   1.94405
    A9        1.94397  -0.00000  -0.00001  -0.00010  -0.00010   1.94387
   A10        1.87597   0.00001   0.00017   0.00001   0.00018   1.87615
   A11        1.87622  -0.00001  -0.00002  -0.00008  -0.00010   1.87612
   A12        1.87611   0.00001   0.00017  -0.00005   0.00012   1.87623
    D1        3.14150   0.00002  -0.00031  -0.00001  -0.00032   3.14119
    D2       -1.04742   0.00002  -0.00029   0.00015  -0.00015  -1.04757
    D3        1.04706   0.00002  -0.00027   0.00011  -0.00016   1.04691
    D4        1.04785  -0.00002  -0.00067  -0.00032  -0.00099   1.04686
    D5       -3.14108  -0.00001  -0.00066  -0.00016  -0.00082   3.14129
    D6       -1.04659  -0.00001  -0.00063  -0.00020  -0.00083  -1.04742
    D7       -1.04665  -0.00002  -0.00078  -0.00020  -0.00099  -1.04764
    D8        1.04761  -0.00001  -0.00077  -0.00005  -0.00082   1.04679
    D9       -3.14109  -0.00001  -0.00074  -0.00008  -0.00083   3.14127
         Item               Value     Threshold  Converged?
 Maximum Force            0.000072     0.000450     YES
 RMS     Force            0.000020     0.000300     YES
 Maximum Displacement     0.000927     0.001800     YES
 RMS     Displacement     0.000377     0.001200     YES
 Predicted change in Energy=-4.401495D-08
 Optimization completed.
    -- Stationary point found.
                           ----------------------------
                           !   Optimized Parameters   !
                           ! (Angstroms and Degrees)  !
 --------------------------                            --------------------------
 ! Name  Definition              Value          Derivative Info.                !
 --------------------------------------------------------------------------------
 ! R1    R(1,2)                  1.53           -DE/DX =    0.0                 !
 ! R2    R(1,3)                  1.0951         -DE/DX =    0.0                 !
 ! R3    R(1,4)                  1.0951         -DE/DX =    0.0                 !
 ! R4    R(1,5)                  1.095          -DE/DX =    0.0                 !
 ! R5    R(2,6)                  1.0951         -DE/DX =    0.0                 !
 ! R6    R(2,7)                  1.0951         -DE/DX =    0.0                 !
 ! R7    R(2,8)                  1.0951         -DE/DX =    0.0                 !
 ! A1    A(2,1,3)              111.3856         -DE/DX =    0.0                 !
 ! A2    A(2,1,4)              111.3462         -DE/DX =    0.0001              !
 ! A3    A(2,1,5)              111.3885         -DE/DX =    0.0                 !
 ! A4    A(3,1,4)              107.4786         -DE/DX =    0.0                 !
 ! A5    A(3,1,5)              107.518          -DE/DX =    0.0                 !
 ! A6    A(4,1,5)              107.5149         -DE/DX =    0.0                 !
 ! A7    A(1,2,6)              111.3778         -DE/DX =    0.0                 !
 ! A8    A(1,2,7)              111.3933         -DE/DX =    0.0                 !
 ! A9    A(1,2,8)              111.3814         -DE/DX =    0.0                 !
 ! A10   A(6,2,7)              107.4849         -DE/DX =    0.0                 !
 ! A11   A(6,2,8)              107.4993         -DE/DX =    0.0                 !
 ! A12   A(7,2,8)              107.493          -DE/DX =    0.0                 !
 ! D1    D(3,1,2,6)            179.995          -DE/DX =    0.0                 !
 ! D2    D(3,1,2,7)            -60.0127         -DE/DX =    0.0                 !
 ! D3    D(3,1,2,8)             59.9924         -DE/DX =    0.0                 !
 ! D4    D(4,1,2,6)             60.0372         -DE/DX =    0.0                 !
 ! D5    D(4,1,2,7)            180.0295         -DE/DX =    0.0                 !
 ! D6    D(4,1,2,8)            -59.9654         -DE/DX =    0.0                 !
 ! D7    D(5,1,2,6)            -59.9686         -DE/DX =    0.0                 !
 ! D8    D(5,1,2,7)             60.0237         -DE/DX =    0.0                 !
 ! D9    D(5,1,2,8)            180.0288         -DE/DX =    0.0                 !
 --------------------------------------------------------------------------------
 GradGradGradGradGradGradGradGradGradGradGradGradGradGradGradGradGradGrad

 Largest change from initial coordinates is atom    6       2.187 Angstoms.
 Leave Link  103 at Fri May 17 11:38:12 2024, MaxMem=   33554432 cpu:       0.0
 (Enter /programs/64bit/g09/g09-gfortran/bin/l202.exe)
                          Input orientation:                          
 ---------------------------------------------------------------------
 Center     Atomic      Atomic             Coordinates (Angstroms)
 Number     Number       Type             X           Y           Z
 ---------------------------------------------------------------------
      1          6           0        0.286616   -0.033446   -0.030944
      2          6           0        0.053867    0.002706    1.480803
      3          1           0        1.349182   -0.150141   -0.268688
      4          1           0       -0.058094    0.889238   -0.509501
      5          1           0       -0.249003   -0.866721   -0.497636
      6          1           0       -1.008730    0.119493    1.718404
      7          1           0        0.398797   -0.919451    1.960231
      8          1           0        0.589156    0.836367    1.947331
 ---------------------------------------------------------------------
                    Distance matrix (angstroms):
                    1          2          3          4          5
     1  C    0.000000
     2  C    1.529987   0.000000
     3  H    1.095074   2.182184   0.000000
     4  H    1.095074   2.181693   1.765992   0.000000
     5  H    1.095005   2.182168   1.766381   1.766346   0.000000
     6  H    2.182094   1.095082   3.095318   2.541609   2.541779
     7  H    2.182285   1.095080   2.542273   3.095105   2.542348
     8  H    2.182127   1.095068   2.541964   2.541210   3.095300
                    6          7          8
     6  H    0.000000
     7  H    1.766074   0.000000
     8  H    1.766227   1.766154   0.000000
 Stoichiometry    C2H6
 Framework group  C1[X(C2H6)]
 Deg. of freedom    18
 Full point group                 C1      NOp   1
 Largest Abelian subgroup         C1      NOp   1
 Largest concise Abelian subgroup C1      NOp   1
                         Standard orientation:                         
 ---------------------------------------------------------------------
 Center     Atomic      Atomic             Coordinates (Angstroms)
 Number     Number       Type             X           Y           Z
 ---------------------------------------------------------------------
      1          6           0       -0.765027   -0.000091   -0.000049
      2          6           0        0.764960    0.000013   -0.000029
      3          1           0       -1.164366    0.591302   -0.830693
      4          1           0       -1.163678    0.424323    0.927387
      5          1           0       -1.164293   -1.015160   -0.096266
      6          1           0        1.164165   -0.591343    0.830718
      7          1           0        1.164451   -0.423790   -0.927390
      8          1           0        1.164124    1.015140    0.096709
 ---------------------------------------------------------------------
 Rotational constants (GHZ):     80.3756395     19.9093933     19.9084676
 Leave Link  202 at Fri May 17 11:38:12 2024, MaxMem=   33554432 cpu:       0.0
 (Enter /programs/64bit/g09/g09-gfortran/bin/l601.exe)
 Copying SCF densities to generalized density rwf, IOpCl= 0 IROHF=0.

 **********************************************************************

            Population analysis using the SCF density.

 **********************************************************************

 Orbital symmetries:
       Occupied  (A) (A) (A) (A) (A) (A) (A) (A) (A)
       Virtual   (A) (A) (A) (A) (A) (A) (A) (A) (A) (A) (A) (A)
                 (A) (A) (A) (A) (A) (A) (A) (A) (A) (A) (A) (A)
                 (A) (A) (A) (A) (A) (A) (A) (A) (A) (A) (A) (A)
                 (A) (A) (A) (A) (A) (A) (A) (A) (A) (A) (A) (A)
                 (A) (A) (A)
 The electronic state is 1-A.
 Alpha  occ. eigenvalues --  -10.17260 -10.17239  -0.74769  -0.61194  -0.42947
 Alpha  occ. eigenvalues --   -0.42942  -0.36313  -0.33920  -0.33913
 Alpha virt. eigenvalues --    0.10499   0.15617   0.16394   0.16395   0.19005
 Alpha virt. eigenvalues --    0.19011   0.24207   0.50799   0.53950   0.53953
 Alpha virt. eigenvalues --    0.61909   0.61921   0.66618   0.86643   0.86646
 Alpha virt. eigenvalues --    0.88168   0.89481   0.89490   0.95365   1.06487
 Alpha virt. eigenvalues --    1.32780   1.32785   1.44069   1.67842   1.67858
 Alpha virt. eigenvalues --    1.86117   2.05744   2.05789   2.06521   2.06532
 Alpha virt. eigenvalues --    2.08740   2.08745   2.26644   2.26649   2.33840
 Alpha virt. eigenvalues --    2.47965   2.47996   2.69006   2.77416   2.79946
 Alpha virt. eigenvalues --    2.79966   2.90630   2.90639   3.14665   3.23759
 Alpha virt. eigenvalues --    3.39679   3.39699   3.52128   3.52145   4.32120
 Alpha virt. eigenvalues --    4.57968
          Condensed to atoms (all electrons):
              1          2          3          4          5          6
     1  C    4.871376   0.373949   0.391242   0.391239   0.391265  -0.034821
     2  C    0.373949   4.871461  -0.034812  -0.034856  -0.034815   0.391239
     3  H    0.391242  -0.034812   0.608100  -0.033133  -0.033094   0.004855
     4  H    0.391239  -0.034856  -0.033133   0.608156  -0.033091  -0.004022
     5  H    0.391265  -0.034815  -0.033094  -0.033091   0.608011  -0.004020
     6  H   -0.034821   0.391239   0.004855  -0.004022  -0.004020   0.608133
     7  H   -0.034815   0.391231  -0.004021   0.004858  -0.004011  -0.033127
     8  H   -0.034815   0.391244  -0.004014  -0.004026   0.004854  -0.033107
              7          8
     1  C   -0.034815  -0.034815
     2  C    0.391231   0.391244
     3  H   -0.004021  -0.004014
     4  H    0.004858  -0.004026
     5  H   -0.004011   0.004854
     6  H   -0.033127  -0.033107
     7  H    0.608139  -0.033116
     8  H   -0.033116   0.608108
 Mulliken atomic charges:
              1
     1  C   -0.314620
     2  C   -0.314641
     3  H    0.104877
     4  H    0.104875
     5  H    0.104902
     6  H    0.104870
     7  H    0.104863
     8  H    0.104873
 Sum of Mulliken atomic charges =  -0.00000
 Mulliken charges with hydrogens summed into heavy atoms:
              1
     1  C    0.000034
     2  C   -0.000034
 Sum of Mulliken charges with hydrogens summed into heavy atoms =  -0.00000
 Electronic spatial extent (au):  <R**2>=            109.5763
 Charge=             -0.0000 electrons
 Dipole moment (field-independent basis, Debye):
    X=             -0.0000    Y=              0.0001    Z=              0.0002  Tot=              0.0002
 Quadrupole moment (field-independent basis, Debye-Ang):
   XX=            -15.1777   YY=            -14.7237   ZZ=            -14.7258
   XY=             -0.0000   XZ=              0.0003   YZ=             -0.0000
 Traceless Quadrupole moment (field-independent basis, Debye-Ang):
   XX=             -0.3019   YY=              0.1520   ZZ=              0.1499
   XY=             -0.0000   XZ=              0.0003   YZ=             -0.0000
 Octapole moment (field-independent basis, Debye-Ang**2):
  XXX=              0.0010  YYY=             -0.0002  ZZZ=              0.0002  XYY=             -0.0012
  XXY=             -0.0003  XXZ=             -0.0013  XZZ=              0.0004  YZZ=              0.0004
  YYZ=              0.0005  XYZ=              0.0001
 Hexadecapole moment (field-independent basis, Debye-Ang**3):
 XXXX=            -92.5338 YYYY=            -28.8596 ZZZZ=            -28.8591 XXXY=              0.0003
 XXXZ=              0.0015 YYYX=              1.1570 YYYZ=             -0.0002 ZZZX=             -0.3379
 ZZZY=              0.0003 XXYY=            -19.1961 XXZZ=            -19.1988 YYZZ=             -9.6195
 XXYZ=             -0.0004 YYXZ=              0.3384 ZZXY=             -1.1567
 N-N= 4.213793947813D+01 E-N=-2.681099453728D+02  KE= 7.898722728629D+01
 No NMR shielding tensors so no spin-rotation constants.
 Leave Link  601 at Fri May 17 11:38:12 2024, MaxMem=   33554432 cpu:       0.1
 (Enter /programs/64bit/g09/g09-gfortran/bin/l9999.exe)
 B after Tr=     0.142967   -0.012804    1.370051
         Rot=    0.629162    0.238598    0.694314    0.255255 Ang= 102.02 deg.
 Final structure in terms of initial Z-matrix:
 C
 C,1,cc2
 H,1,hc3,2,hcc3
 H,1,hc4,2,hcc4,3,dih4,0
 H,1,hc5,2,hcc5,3,dih5,0
 H,2,hc6,1,hcc6,3,dih6,0
 H,2,hc7,1,hcc7,6,dih7,0
 H,2,hc8,1,hcc8,6,dih8,0
      Variables:
 cc2=1.5299872
 hc3=1.09507411
 hcc3=111.38555562
 hc4=1.09507401
 hcc4=111.34622354
 dih4=-119.95777588
 hc5=1.09500514
 hcc5=111.3884613
 dih5=120.0364237
 hc6=1.09508245
 hcc6=111.37782477
 dih6=179.99497516
 hc7=1.09508042
 hcc7=111.3932665
 dih7=119.99234128
 hc8=1.09506786
 hcc8=111.38139408
 dih8=-120.00260203
 1\1\GINC-MOLMOD\FOpt\RB3LYP\6-31G(d,p)\C2H6\OSPITE\17-May-2024\0\\#p B
 3LYP/6-31g** opt out=wfn\\ethane\\0,1\C,0.2866160273,-0.0334462735,-0.
 0309444083\C,0.0538666733,0.0027059096,1.4808034482\H,1.3491824907,-0.
 1501409252,-0.2686883342\H,-0.0580942996,0.8892377747,-0.5095005889\H,
 -0.2490034538,-0.8667210193,-0.4976362009\H,-1.0087302562,0.1194927749
 ,1.7184043086\H,0.3987971104,-0.9194511493,1.9602306832\H,0.5891563861
 ,0.8363668077,1.9473310922\\Version=EM64L-G09RevA.02\State=1-A\HF=-79.
 8387392\RMSD=2.667e-09\RMSF=3.276e-05\Dipole=-0.0000107,0.0000819,-0.0
 000096\Quadrupole=0.104427,0.1121439,-0.2165709,0.0019257,0.0504025,-0
 .0076016\PG=C01 [X(C2H6)]\\@

 Writing a WFN file to ethane.wfn.


 OLD HORSE! OLD HORSE! WHAT BROUGHT YOU HERE?
 FROM SACARAP' TO PORTLAND PIER
 I'VE CARTED STONE THIS MANY A YEAR;
 TILL, KILLED BY BLOWS AND SORE ABUSE,
 THEY SALTED ME DOWN FOR SAILORS' USE.
 THE SAILORS THEY DO ME DESPISE;
 THEY TURN ME OVER AND DAMN MY EYES;
 CUT OFF MY MEAT, AND SCRAPE MY BONES,
 AND PITCH ME OVER TO DAVY JONES.

    SAILORS' COMPLAINT ABOUT THE BEEF
    SERVED ON SHIPBOARD, CIRCA 1835.
 Job cpu time:  0 days  0 hours  1 minutes 34.2 seconds.
 File lengths (MBytes):  RWF=      5 Int=      0 D2E=      0 Chk=      1 Scr=      1
 Normal termination of Gaussian 09 at Fri May 17 11:38:12 2024.
