 Entering Gaussian System, Link 0=g09
 Input=ethyne.com
 Output=ethyne.log
 Initial command:
 /programs/64bit/g09/g09-gfortran/bin/l1.exe /data/scratch/Gau-4260.inp -scrdir=/data/scratch/
 Entering Link 1 = /programs/64bit/g09/g09-gfortran/bin/l1.exe PID=      4261.
  
 Copyright (c) 1988,1990,1992,1993,1995,1998,2003,2009, Gaussian, Inc.
                  All Rights Reserved.
  
 This is part of the Gaussian(R) 09 program.  It is based on
 the Gaussian(R) 03 system (copyright 2003, Gaussian, Inc.),
 the Gaussian(R) 98 system (copyright 1998, Gaussian, Inc.),
 the Gaussian(R) 94 system (copyright 1995, Gaussian, Inc.),
 the Gaussian 92(TM) system (copyright 1992, Gaussian, Inc.),
 the Gaussian 90(TM) system (copyright 1990, Gaussian, Inc.),
 the Gaussian 88(TM) system (copyright 1988, Gaussian, Inc.),
 the Gaussian 86(TM) system (copyright 1986, Carnegie Mellon
 University), and the Gaussian 82(TM) system (copyright 1983,
 Carnegie Mellon University). Gaussian is a federally registered
 trademark of Gaussian, Inc.
  
 This software contains proprietary and confidential information,
 including trade secrets, belonging to Gaussian, Inc.
  
 This software is provided under written license and may be
 used, copied, transmitted, or stored only in accord with that
 written license.
  
 The following legend is applicable only to US Government
 contracts under FAR:
  
                    RESTRICTED RIGHTS LEGEND
  
 Use, reproduction and disclosure by the US Government is
 subject to restrictions as set forth in subparagraphs (a)
 and (c) of the Commercial Computer Software - Restricted
 Rights clause in FAR 52.227-19.
  
 Gaussian, Inc.
 340 Quinnipiac St., Bldg. 40, Wallingford CT 06492
  
  
 ---------------------------------------------------------------
 Warning -- This program may not be used in any manner that
 competes with the business of Gaussian, Inc. or will provide
 assistance to any competitor of Gaussian, Inc.  The licensee
 of this program is prohibited from giving any competitor of
 Gaussian, Inc. access to this program.  By using this program,
 the user acknowledges that Gaussian, Inc. is engaged in the
 business of creating and licensing software in the field of
 computational chemistry and represents and warrants to the
 licensee that it is not a competitor of Gaussian, Inc. and that
 it will not use this program in any manner prohibited above.
 ---------------------------------------------------------------
  

 Cite this work as:
 Gaussian 09, Revision A.02,
 M. J. Frisch, G. W. Trucks, H. B. Schlegel, G. E. Scuseria, 
 M. A. Robb, J. R. Cheeseman, G. Scalmani, V. Barone, B. Mennucci, 
 G. A. Petersson, H. Nakatsuji, M. Caricato, X. Li, H. P. Hratchian, 
 A. F. Izmaylov, J. Bloino, G. Zheng, J. L. Sonnenberg, M. Hada, 
 M. Ehara, K. Toyota, R. Fukuda, J. Hasegawa, M. Ishida, T. Nakajima, 
 Y. Honda, O. Kitao, H. Nakai, T. Vreven, J. A. Montgomery, Jr., 
 J. E. Peralta, F. Ogliaro, M. Bearpark, J. J. Heyd, E. Brothers, 
 K. N. Kudin, V. N. Staroverov, R. Kobayashi, J. Normand, 
 K. Raghavachari, A. Rendell, J. C. Burant, S. S. Iyengar, J. Tomasi, 
 M. Cossi, N. Rega, J. M. Millam, M. Klene, J. E. Knox, J. B. Cross, 
 V. Bakken, C. Adamo, J. Jaramillo, R. Gomperts, R. E. Stratmann, 
 O. Yazyev, A. J. Austin, R. Cammi, C. Pomelli, J. W. Ochterski, 
 R. L. Martin, K. Morokuma, V. G. Zakrzewski, G. A. Voth, 
 P. Salvador, J. J. Dannenberg, S. Dapprich, A. D. Daniels, 
 O. Farkas, J. B. Foresman, J. V. Ortiz, J. Cioslowski, 
 and D. J. Fox, Gaussian, Inc., Wallingford CT, 2009.
 
 ******************************************
 Gaussian 09:  EM64L-G09RevA.02 11-Jun-2009
                28-Jun-2024 
 ******************************************
 -----------------------------
 #p B3LYP/6-31+g** opt out=wfn
 -----------------------------
 1/14=-1,18=20,19=15,26=3,38=1/1,3;
 2/9=110,12=2,17=6,18=5,40=1/2;
 3/5=1,6=6,7=111,11=2,16=1,25=1,30=1,71=1,74=-5/1,2,3;
 4//1;
 5/5=2,38=5/2;
 6/7=2,8=2,9=2,10=2,28=1/1;
 7//1,2,3,16;
 1/14=-1,18=20,19=15/3(2);
 2/9=110/2;
 99/6=100/99;
 2/9=110/2;
 3/5=1,6=6,7=111,11=2,16=1,25=1,30=1,71=1,74=-5/1,2,3;
 4/5=5,16=3/1;
 5/5=2,38=5/2;
 7//1,2,3,16;
 1/14=-1,18=20,19=15/3(-5);
 2/9=110/2;
 6/7=2,8=2,9=2,10=2,19=2,28=1/1;
 99/6=100,9=1/99;
 Leave Link    1 at Fri Jun 28 11:36:38 2024, MaxMem=          0 cpu:       0.0
 (Enter /programs/64bit/g09/g09-gfortran/bin/l101.exe)
 ------
 ethyne
 ------
 Symbolic Z-matrix:
 Charge =  0 Multiplicity = 1
 C1
 C2                   1    d1
 H3                   2    d2       1    a1
 H4                   1    d3       2    a2       3    t1       0
       Variables:
       Constants:
  d1                    1.4                      
  d2                    1.                       
  d3                    1.                       
  a1                  180.                       
  a2                  180.                       
  t1                  180.                       
 
 NAtoms=      4 NQM=      4 NQMF=      0 NMic=      0 NMicF=      0 NTot=      4.
                    Isotopes and Nuclear Properties:
 (Nuclear quadrupole moments (NQMom) in fm**2, nuclear magnetic moments (NMagM)
  in nuclear magnetons)

  Atom         1           2           3           4
 IAtWgt=          12          12           1           1
 AtmWgt=  12.0000000  12.0000000   1.0078250   1.0078250
 NucSpn=           0           0           1           1
 AtZEff=   0.0000000   0.0000000   0.0000000   0.0000000
 NQMom=    0.0000000   0.0000000   0.0000000   0.0000000
 NMagM=    0.0000000   0.0000000   2.7928460   2.7928460
 Leave Link  101 at Fri Jun 28 11:36:39 2024, MaxMem=   33554432 cpu:       0.2
 (Enter /programs/64bit/g09/g09-gfortran/bin/l103.exe)

 GradGradGradGradGradGradGradGradGradGradGradGradGradGradGradGradGradGrad
 Berny optimization.
 Initialization pass.
                           ----------------------------
                           !    Initial Parameters    !
                           ! (Angstroms and Degrees)  !
 --------------------------                            --------------------------
 ! Name  Definition              Value          Derivative Info.                !
 --------------------------------------------------------------------------------
 ! R1    R(1,2)                  1.4            estimate D2E/DX2                !
 ! R2    R(1,4)                  1.0            estimate D2E/DX2                !
 ! R3    R(2,3)                  1.0            estimate D2E/DX2                !
 ! A1    L(2,1,4,-1,-1)        180.0            estimate D2E/DX2                !
 ! A2    L(1,2,3,-1,-1)        180.0            estimate D2E/DX2                !
 ! A3    L(2,1,4,-2,-2)        180.0            estimate D2E/DX2                !
 ! A4    L(1,2,3,-2,-2)        180.0            estimate D2E/DX2                !
 --------------------------------------------------------------------------------
 Trust Radius=3.00D-01 FncErr=1.00D-07 GrdErr=1.00D-06
 Number of steps in this run=  20 maximum allowed number of steps= 100.
 GradGradGradGradGradGradGradGradGradGradGradGradGradGradGradGradGradGrad

 Leave Link  103 at Fri Jun 28 11:36:39 2024, MaxMem=   33554432 cpu:       0.0
 (Enter /programs/64bit/g09/g09-gfortran/bin/l202.exe)
                          Input orientation:                          
 ---------------------------------------------------------------------
 Center     Atomic      Atomic             Coordinates (Angstroms)
 Number     Number       Type             X           Y           Z
 ---------------------------------------------------------------------
      1          6           0        0.000000    0.000000    0.000000
      2          6           0        0.000000    0.000000    1.400000
      3          1           0        0.000000    0.000000    2.400000
      4          1           0        0.000000    0.000000   -1.000000
 ---------------------------------------------------------------------
                    Distance matrix (angstroms):
                    1          2          3          4
     1  C    0.000000
     2  C    1.400000   0.000000
     3  H    2.400000   1.000000   0.000000
     4  H    1.000000   2.400000   3.400000   0.000000
 Stoichiometry    C2H2
 Framework group  D*H[C*(HC.CH)]
 Deg. of freedom     2
 Full point group                 D*H     NOp   8
 Largest Abelian subgroup         D2H     NOp   8
 Largest concise Abelian subgroup C2      NOp   2
                         Standard orientation:                         
 ---------------------------------------------------------------------
 Center     Atomic      Atomic             Coordinates (Angstroms)
 Number     Number       Type             X           Y           Z
 ---------------------------------------------------------------------
      1          6           0        0.000000    0.000000    0.700000
      2          6           0        0.000000    0.000000   -0.700000
      3          1           0        0.000000    0.000000   -1.700000
      4          1           0       -0.000000    0.000000    1.700000
 ---------------------------------------------------------------------
 Rotational constants (GHZ):      0.0000000     28.7388361     28.7388361
 Leave Link  202 at Fri Jun 28 11:36:39 2024, MaxMem=   33554432 cpu:       0.0
 (Enter /programs/64bit/g09/g09-gfortran/bin/l301.exe)
 Standard basis: 6-31+G(d,p) (6D, 7F)
 Ernie: Thresh=  0.10000D-02 Tol=  0.10000D-05 Strict=F.
 There are    13 symmetry adapted basis functions of AG  symmetry.
 There are     1 symmetry adapted basis functions of B1G symmetry.
 There are     5 symmetry adapted basis functions of B2G symmetry.
 There are     5 symmetry adapted basis functions of B3G symmetry.
 There are     1 symmetry adapted basis functions of AU  symmetry.
 There are    13 symmetry adapted basis functions of B1U symmetry.
 There are     5 symmetry adapted basis functions of B2U symmetry.
 There are     5 symmetry adapted basis functions of B3U symmetry.
 Integral buffers will be    131072 words long.
 Raffenetti 2 integral format.
 Two-electron integral symmetry is turned on.
    48 basis functions,    78 primitive gaussians,    48 cartesian basis functions
     7 alpha electrons        7 beta electrons
       nuclear repulsion energy        22.7590668367 Hartrees.
 IExCor=  402 DFT=T Ex+Corr=B3LYP ExCW=0 ScaHFX=  0.200000
 ScaDFX=  0.800000  0.720000  1.000000  0.810000 ScalE2=  1.000000  1.000000
 IRadAn=      0 IRanWt=     -1 IRanGd=            0 ICorTp=0
 NAtoms=    4 NActive=    4 NUniq=    2 SFac= 3.00D+00 NAtFMM=   80 NAOKFM=F Big=F
 Leave Link  301 at Fri Jun 28 11:36:39 2024, MaxMem=   33554432 cpu:       0.0
 (Enter /programs/64bit/g09/g09-gfortran/bin/l302.exe)
 NPDir=0 NMtPBC=     1 NCelOv=     1 NCel=       1 NClECP=     1 NCelD=      1
         NCelK=      1 NCelE2=     1 NClLst=     1 CellRange=     0.0.
 One-electron integrals computed using PRISM.
 One-electron integral symmetry used in STVInt
 NBasis=    48 RedAO= T  NBF=    13     1     5     5     1    13     5     5
 NBsUse=    48 1.00D-06 NBFU=    13     1     5     5     1    13     5     5
 Precomputing XC quadrature grid using
 IXCGrd= 2 IRadAn=           0 IRanWt=          -1 IRanGd=           0 AccXCQ= 1.00D-10.
 NRdTot=     254 NPtTot=       32428 NUsed=       34271 NTot=       34303
 NSgBfM=    48    48    48    48    48 NAtAll=     4     4.
 Leave Link  302 at Fri Jun 28 11:36:39 2024, MaxMem=   33554432 cpu:       0.1
 (Enter /programs/64bit/g09/g09-gfortran/bin/l303.exe)
 DipDrv:  MaxL=1.
 Leave Link  303 at Fri Jun 28 11:36:39 2024, MaxMem=   33554432 cpu:       0.0
 (Enter /programs/64bit/g09/g09-gfortran/bin/l401.exe)
 Harris functional with IExCor=  402 diagonalized for initial guess.
 ExpMin= 4.38D-02 ExpMax= 3.05D+03 ExpMxC= 4.57D+02 IAcc=2 IRadAn=         0 AccDes= 0.00D+00
 HarFok:  IExCor=  402 AccDes= 0.00D+00 IRadAn=         0 IDoV= 1
 ScaDFX=  1.000000  1.000000  1.000000  1.000000
 FoFCou: FMM=F IPFlag=           0 FMFlag=      100000 FMFlg1=           0
         NFxFlg=           0 DoJE=T BraDBF=F KetDBF=T FulRan=T
         Omega=  0.000000  0.000000  1.000000  0.000000  0.000000 ICntrl=     500 IOpCl=  0
         NMat0=    1 NMatS0=    1 NMatT0=    0 NMatD0=    1 NMtDS0=    0 NMtDT0=    0
         I1Cent=           4 NGrid=           0.
 Petite list used in FoFCou.
 Harris En= -77.2939294304684    
 Initial guess orbital symmetries:
       Occupied  (SGG) (SGU) (SGG) (SGU) (SGG) (PIU) (PIU)
       Virtual   (PIG) (PIG) (SGU) (SGG) (SGG) (PIU) (PIU) (SGU)
                 (PIG) (PIG) (SGU) (SGG) (SGU) (PIU) (PIU) (SGG)
                 (PIG) (PIG) (SGU) (SGG) (SGU) (SGG) (PIU) (PIU)
                 (SGU) (DLTG) (DLTG) (DLTU) (DLTU) (PIG) (PIG)
                 (SGG) (PIU) (PIU) (SGU) (PIG) (PIG) (SGG) (SGU)
                 (SGG) (SGU)
 The electronic state of the initial guess is 1-SGG.
 Leave Link  401 at Fri Jun 28 11:36:39 2024, MaxMem=   33554432 cpu:       0.1
 (Enter /programs/64bit/g09/g09-gfortran/bin/l502.exe)
 Closed shell SCF:
 Requested convergence on RMS density matrix=1.00D-08 within 128 cycles.
 Requested convergence on MAX density matrix=1.00D-06.
 Requested convergence on             energy=1.00D-06.
 No special actions if energy rises.
 Using DIIS extrapolation, IDIIS=  1040.
 Integral symmetry usage will be decided dynamically.
        34222 words used for storage of precomputed grid.
 Keep R1 ints in memory in canonical form, NReq=1619712.
 IEnd=       60088 IEndB=       60088 NGot=    33554432 MDV=    32821233
 LenX=    32821233 LenY=    32818488
 Symmetry not used in FoFDir.
 MinBra= 0 MaxBra= 2 Meth= 1.
 IRaf=       0 NMat=   1 IRICut=       1 DoRegI=T DoRafI=F ISym2E= 0 JSym2E=0.

 Cycle   1  Pass 1  IDiag  1:
 E= -77.2409948488958    
 DIIS: error= 2.84D-02 at cycle   1 NSaved=   1.
 NSaved= 1 IEnMin= 1 EnMin= -77.2409948488958     IErMin= 1 ErrMin= 2.84D-02
 ErrMax= 2.84D-02 EMaxC= 1.00D-01 BMatC= 2.84D-02 BMatP= 2.84D-02
 IDIUse=3 WtCom= 7.16D-01 WtEn= 2.84D-01
 Coeff-Com:  0.100D+01
 Coeff-En:   0.100D+01
 Coeff:      0.100D+01
 Gap=     0.229 Goal=   None    Shift=    0.000
 GapD=    0.229 DampG=1.000 DampE=0.500 DampFc=0.5000 IDamp=-1.
 Damping current iteration by 5.00D-01
 RMSDP=6.30D-03 MaxDP=6.00D-02              OVMax= 1.39D-01

 Cycle   2  Pass 1  IDiag  1:
 E= -77.2592957655716     Delta-E=       -0.018300916676 Rises=F Damp=T
 DIIS: error= 8.64D-03 at cycle   2 NSaved=   2.
 NSaved= 2 IEnMin= 2 EnMin= -77.2592957655716     IErMin= 2 ErrMin= 8.64D-03
 ErrMax= 8.64D-03 EMaxC= 1.00D-01 BMatC= 1.22D-03 BMatP= 2.84D-02
 IDIUse=3 WtCom= 9.14D-01 WtEn= 8.64D-02
 Coeff-Com: -0.568D-01 0.106D+01
 Coeff-En:   0.000D+00 0.100D+01
 Coeff:     -0.519D-01 0.105D+01
 Gap=     0.252 Goal=   None    Shift=    0.000
 RMSDP=8.09D-04 MaxDP=7.17D-03 DE=-1.83D-02 OVMax= 6.60D-02

 Cycle   3  Pass 1  IDiag  1:
 E= -77.2771637460226     Delta-E=       -0.017867980451 Rises=F Damp=F
 DIIS: error= 1.34D-03 at cycle   3 NSaved=   3.
 NSaved= 3 IEnMin= 3 EnMin= -77.2771637460226     IErMin= 3 ErrMin= 1.34D-03
 ErrMax= 1.34D-03 EMaxC= 1.00D-01 BMatC= 3.46D-05 BMatP= 1.22D-03
 IDIUse=3 WtCom= 9.87D-01 WtEn= 1.34D-02
 Coeff-Com: -0.296D-01 0.105D+00 0.925D+00
 Coeff-En:   0.000D+00 0.000D+00 0.100D+01
 Coeff:     -0.292D-01 0.104D+00 0.926D+00
 Gap=     0.245 Goal=   None    Shift=    0.000
 RMSDP=1.64D-04 MaxDP=1.82D-03 DE=-1.79D-02 OVMax= 2.41D-03

 Cycle   4  Pass 1  IDiag  1:
 E= -77.2772016983327     Delta-E=       -0.000037952310 Rises=F Damp=F
 DIIS: error= 1.63D-04 at cycle   4 NSaved=   4.
 NSaved= 4 IEnMin= 4 EnMin= -77.2772016983327     IErMin= 4 ErrMin= 1.63D-04
 ErrMax= 1.63D-04 EMaxC= 1.00D-01 BMatC= 6.93D-07 BMatP= 3.46D-05
 IDIUse=3 WtCom= 9.98D-01 WtEn= 1.63D-03
 Coeff-Com: -0.621D-02 0.149D-01 0.190D+00 0.802D+00
 Coeff-En:   0.000D+00 0.000D+00 0.000D+00 0.100D+01
 Coeff:     -0.620D-02 0.149D-01 0.189D+00 0.802D+00
 Gap=     0.245 Goal=   None    Shift=    0.000
 RMSDP=2.01D-05 MaxDP=1.38D-04 DE=-3.80D-05 OVMax= 2.90D-04

 Cycle   5  Pass 1  IDiag  1:
 E= -77.2772024312907     Delta-E=       -0.000000732958 Rises=F Damp=F
 DIIS: error= 7.10D-06 at cycle   5 NSaved=   5.
 NSaved= 5 IEnMin= 5 EnMin= -77.2772024312907     IErMin= 5 ErrMin= 7.10D-06
 ErrMax= 7.10D-06 EMaxC= 1.00D-01 BMatC= 2.48D-09 BMatP= 6.93D-07
 IDIUse=1 WtCom= 1.00D+00 WtEn= 0.00D+00
 Coeff-Com: -0.508D-03 0.535D-03 0.118D-01 0.761D-01 0.912D+00
 Coeff:     -0.508D-03 0.535D-03 0.118D-01 0.761D-01 0.912D+00
 Gap=     0.245 Goal=   None    Shift=    0.000
 RMSDP=8.27D-07 MaxDP=7.89D-06 DE=-7.33D-07 OVMax= 1.05D-05

 Cycle   6  Pass 1  IDiag  1:
 E= -77.2772024332297     Delta-E=       -0.000000001939 Rises=F Damp=F
 DIIS: error= 5.78D-07 at cycle   6 NSaved=   6.
 NSaved= 6 IEnMin= 6 EnMin= -77.2772024332297     IErMin= 6 ErrMin= 5.78D-07
 ErrMax= 5.78D-07 EMaxC= 1.00D-01 BMatC= 1.10D-11 BMatP= 2.48D-09
 IDIUse=1 WtCom= 1.00D+00 WtEn= 0.00D+00
 Coeff-Com:  0.169D-04-0.503D-04-0.108D-02-0.401D-02-0.918D-02 0.101D+01
 Coeff:      0.169D-04-0.503D-04-0.108D-02-0.401D-02-0.918D-02 0.101D+01
 Gap=     0.245 Goal=   None    Shift=    0.000
 RMSDP=1.06D-07 MaxDP=9.42D-07 DE=-1.94D-09 OVMax= 1.67D-06

 Cycle   7  Pass 1  IDiag  1:
 E= -77.2772024332452     Delta-E=       -0.000000000016 Rises=F Damp=F
 DIIS: error= 2.48D-08 at cycle   7 NSaved=   7.
 NSaved= 7 IEnMin= 7 EnMin= -77.2772024332452     IErMin= 7 ErrMin= 2.48D-08
 ErrMax= 2.48D-08 EMaxC= 1.00D-01 BMatC= 2.75D-14 BMatP= 1.10D-11
 IDIUse=1 WtCom= 1.00D+00 WtEn= 0.00D+00
 Coeff-Com: -0.131D-05 0.443D-05 0.479D-04 0.157D-03-0.212D-02-0.446D-01
 Coeff-Com:  0.105D+01
 Coeff:     -0.131D-05 0.443D-05 0.479D-04 0.157D-03-0.212D-02-0.446D-01
 Coeff:      0.105D+01
 Gap=     0.245 Goal=   None    Shift=    0.000
 RMSDP=4.63D-09 MaxDP=4.07D-08 DE=-1.55D-11 OVMax= 6.16D-08

 SCF Done:  E(RB3LYP) =  -77.2772024332     A.U. after    7 cycles
             Convg  =    0.4633D-08             -V/T =  2.0155
 KE= 7.609479445973D+01 PE=-2.237032965654D+02 EE= 4.757223283579D+01
 Leave Link  502 at Fri Jun 28 11:36:39 2024, MaxMem=   33554432 cpu:       0.5
 (Enter /programs/64bit/g09/g09-gfortran/bin/l601.exe)
 Copying SCF densities to generalized density rwf, IOpCl= 0 IROHF=0.

 **********************************************************************

            Population analysis using the SCF density.

 **********************************************************************

 Orbital symmetries:
       Occupied  (SGG) (SGU) (SGG) (SGU) (SGG) (PIU) (PIU)
       Virtual   (PIG) (PIG) (SGU) (SGG) (PIU) (PIU) (SGG) (PIG)
                 (PIG) (SGU) (SGU) (SGG) (SGU) (PIU) (PIU) (SGG)
                 (PIG) (PIG) (SGU) (SGG) (SGU) (SGG) (PIU) (PIU)
                 (SGU) (DLTG) (DLTG) (DLTU) (DLTU) (PIG) (PIG)
                 (SGG) (PIU) (PIU) (SGU) (PIG) (PIG) (SGG) (SGU)
                 (SGG) (SGU)
 The electronic state is 1-SGG.
 Alpha  occ. eigenvalues --  -10.25017 -10.24960  -0.73264  -0.61834  -0.51248
 Alpha  occ. eigenvalues --   -0.27758  -0.27758
 Alpha virt. eigenvalues --   -0.03227  -0.03227   0.01952   0.02022   0.07133
 Alpha virt. eigenvalues --    0.07133   0.07894   0.11934   0.11934   0.12484
 Alpha virt. eigenvalues --    0.18248   0.27194   0.42813   0.67062   0.67062
 Alpha virt. eigenvalues --    0.69578   0.70422   0.70422   0.88529   0.89358
 Alpha virt. eigenvalues --    1.05870   1.07842   1.29391   1.29391   1.44085
 Alpha virt. eigenvalues --    1.58199   1.58199   1.82839   1.82839   1.84347
 Alpha virt. eigenvalues --    1.84347   2.25443   2.40068   2.40068   2.73222
 Alpha virt. eigenvalues --    2.91293   2.91293   3.55024   3.80315   4.17566
 Alpha virt. eigenvalues --    5.48939
          Condensed to atoms (all electrons):
              1          2          3          4
     1  C    4.939145   0.880616  -0.024128   0.378817
     2  C    0.880616   4.939145   0.378817  -0.024128
     3  H   -0.024128   0.378817   0.469549   0.001312
     4  H    0.378817  -0.024128   0.001312   0.469549
 Mulliken atomic charges:
              1
     1  C   -0.174450
     2  C   -0.174450
     3  H    0.174450
     4  H    0.174450
 Sum of Mulliken atomic charges =   0.00000
 Mulliken charges with hydrogens summed into heavy atoms:
              1
     1  C    0.000000
     2  C    0.000000
 Sum of Mulliken charges with hydrogens summed into heavy atoms =   0.00000
 Electronic spatial extent (au):  <R**2>=             68.3937
 Charge=              0.0000 electrons
 Dipole moment (field-independent basis, Debye):
    X=             -0.0000    Y=             -0.0000    Z=              0.0000  Tot=              0.0000
 Quadrupole moment (field-independent basis, Debye-Ang):
   XX=            -14.5652   YY=            -14.5652   ZZ=             -6.8561
   XY=              0.0000   XZ=             -0.0000   YZ=              0.0000
 Traceless Quadrupole moment (field-independent basis, Debye-Ang):
   XX=             -2.5697   YY=             -2.5697   ZZ=              5.1394
   XY=              0.0000   XZ=             -0.0000   YZ=              0.0000
 Octapole moment (field-independent basis, Debye-Ang**2):
  XXX=             -0.0000  YYY=             -0.0000  ZZZ=              0.0000  XYY=             -0.0000
  XXY=             -0.0000  XXZ=              0.0000  XZZ=             -0.0000  YZZ=              0.0000
  YYZ=              0.0000  XYZ=              0.0000
 Hexadecapole moment (field-independent basis, Debye-Ang**3):
 XXXX=            -21.5566 YYYY=            -21.5566 ZZZZ=            -45.6412 XXXY=              0.0000
 XXXZ=              0.0000 YYYX=              0.0000 YYYZ=              0.0000 ZZZX=              0.0000
 ZZZY=              0.0000 XXYY=             -7.1855 XXZZ=            -15.0408 YYZZ=            -15.0408
 XXYZ=              0.0000 YYXZ=              0.0000 ZZXY=             -0.0000
 N-N= 2.275906683667D+01 E-N=-2.237032959801D+02  KE= 7.609479445973D+01
 Symmetry AG   KE= 3.744382823795D+01
 Symmetry B1G  KE= 4.765250166891D-35
 Symmetry B2G  KE=-3.344007791182D-34
 Symmetry B3G  KE=-2.106466076761D-20
 Symmetry AU   KE= 8.814961132705D-35
 Symmetry B1U  KE= 3.446922998209D+01
 Symmetry B2U  KE= 2.090868119847D+00
 Symmetry B3U  KE= 2.090868119847D+00
 No NMR shielding tensors so no spin-rotation constants.
 Leave Link  601 at Fri Jun 28 11:36:40 2024, MaxMem=   33554432 cpu:       0.0
 (Enter /programs/64bit/g09/g09-gfortran/bin/l701.exe)
 Compute integral first derivatives.
 ... and contract with generalized density number  0.
 Leave Link  701 at Fri Jun 28 11:36:40 2024, MaxMem=   33554432 cpu:       0.1
 (Enter /programs/64bit/g09/g09-gfortran/bin/l702.exe)
 L702 exits ... SP integral derivatives will be done elsewhere.
 Leave Link  702 at Fri Jun 28 11:36:40 2024, MaxMem=   33554432 cpu:       0.0
 (Enter /programs/64bit/g09/g09-gfortran/bin/l703.exe)
 Compute integral first derivatives, UseDBF=F ICtDFT=           0.
 Integral derivatives from FoFDir, PRISM(SPDF).
 Calling FoFJK, ICntrl=      2127 FMM=F ISym2X=1 I1Cent= 0 IOpClX= 0 NMat=1 NMatS=1 NMatT=0.
 FoFCou: FMM=F IPFlag=           0 FMFlag=      100000 FMFlg1=         800
         NFxFlg=           0 DoJE=F BraDBF=F KetDBF=F FulRan=T
         Omega=  0.000000  0.000000  1.000000  0.000000  0.000000 ICntrl=    2127 IOpCl=  0
         NMat0=    1 NMatS0=    1 NMatT0=    0 NMatD0=    1 NMtDS0=    0 NMtDT0=    0
         I1Cent=           0 NGrid=           0.
 Petite list used in FoFCou.
 Leave Link  703 at Fri Jun 28 11:36:40 2024, MaxMem=   33554432 cpu:       0.0
 (Enter /programs/64bit/g09/g09-gfortran/bin/l716.exe)
 Dipole        =-7.26514972D-17-1.92525042D-34 8.88178420D-16
 ***** Axes restored to original set *****
 -------------------------------------------------------------------
 Center     Atomic                   Forces (Hartrees/Bohr)
 Number     Number              X              Y              Z
 -------------------------------------------------------------------
      1        6          -0.000000000    0.000000000    0.306764125
      2        6          -0.000000000   -0.000000000   -0.306764125
      3        1           0.000000000   -0.000000000    0.065932666
      4        1           0.000000000    0.000000000   -0.065932666
 -------------------------------------------------------------------
 Cartesian Forces:  Max     0.306764125 RMS     0.128095892
 Leave Link  716 at Fri Jun 28 11:36:40 2024, MaxMem=   33554432 cpu:       0.0
 (Enter /programs/64bit/g09/g09-gfortran/bin/l103.exe)

 GradGradGradGradGradGradGradGradGradGradGradGradGradGradGradGradGradGrad
 Berny optimization.
 Internal  Forces:  Max     0.240831459 RMS     0.097610029
 Search for a local minimum.
 Step number   1 out of a maximum of   20
 All quantities printed in internal units (Hartrees-Bohrs-Radians)
 RMS Force = .97610D-01 SwitMx=.10000D-02 MixMth= 1
 Mixed Optimization -- RFO/linear search
 Second derivative matrix not updated -- first step.
 The second derivative matrix:
                          R1        R2        R3        A1        A2
           R1           0.45621
           R2           0.00000   0.47688
           R3           0.00000   0.00000   0.47688
           A1           0.00000   0.00000   0.00000   0.01425
           A2           0.00000   0.00000   0.00000   0.00000   0.01425
           A3           0.00000   0.00000   0.00000   0.00000   0.00000
           A4           0.00000   0.00000   0.00000   0.00000   0.00000
                          A3        A4
           A3           0.01425
           A4           0.00000   0.01425
     Eigenvalues ---    0.01425   0.01425   0.01425   0.01425   0.45621
     Eigenvalues ---    0.47688   0.47688
 RFO step:  Lambda=-1.16021769D-01 EMin= 1.42535752D-02
 Linear search not attempted -- first point.
 Maximum step size (   0.300) exceeded in Quadratic search.
    -- Step size scaled by   0.668
 Iteration  1 RMS(Cart)=  0.05519560 RMS(Int)=  0.03062330
 Iteration  2 RMS(Cart)=  0.03062330 RMS(Int)=  0.00000000
 Iteration  3 RMS(Cart)=  0.00000000 RMS(Int)=  0.00000000
 ClnCor:  largest displacement from symmetrization is 2.60D-14 for atom     2.
 Variable       Old X    -DE/DX   Delta X   Delta X   Delta X     New X
                                 (Linear)    (Quad)   (Total)
    R1        2.64562  -0.24083   0.00000  -0.28102  -0.28102   2.36459
    R2        1.88973   0.06593   0.00000   0.07425   0.07425   1.96398
    R3        1.88973   0.06593   0.00000   0.07425   0.07425   1.96398
    A1        3.14159  -0.00000   0.00000  -0.00000   0.00000   3.14159
    A2        3.14159   0.00000   0.00000   0.00000   0.00000   3.14159
    A3        3.14159   0.00000   0.00000   0.00000   0.00000   3.14159
    A4        3.14159  -0.00000   0.00000  -0.00000   0.00000   3.14159
         Item               Value     Threshold  Converged?
 Maximum Force            0.240831     0.000450     NO 
 RMS     Force            0.097610     0.000300     NO 
 Maximum Displacement     0.140511     0.001800     NO 
 RMS     Displacement     0.083038     0.001200     NO 
 Predicted change in Energy=-5.682692D-02
 GradGradGradGradGradGradGradGradGradGradGradGradGradGradGradGradGradGrad

 Leave Link  103 at Fri Jun 28 11:36:40 2024, MaxMem=   33554432 cpu:       0.0
 (Enter /programs/64bit/g09/g09-gfortran/bin/l202.exe)
                          Input orientation:                          
 ---------------------------------------------------------------------
 Center     Atomic      Atomic             Coordinates (Angstroms)
 Number     Number       Type             X           Y           Z
 ---------------------------------------------------------------------
      1          6           0        0.000000    0.000000    0.074355
      2          6           0        0.000000    0.000000    1.325645
      3          1           0        0.000000    0.000000    2.364938
      4          1           0       -0.000000    0.000000   -0.964938
 ---------------------------------------------------------------------
                    Distance matrix (angstroms):
                    1          2          3          4
     1  C    0.000000
     2  C    1.251290   0.000000
     3  H    2.290582   1.039293   0.000000
     4  H    1.039293   2.290582   3.329875   0.000000
 Stoichiometry    C2H2
 Framework group  D*H[C*(HC.CH)]
 Deg. of freedom     2
 Full point group                 D*H     NOp   8
 Largest Abelian subgroup         D2H     NOp   8
 Largest concise Abelian subgroup C2      NOp   2
                         Standard orientation:                         
 ---------------------------------------------------------------------
 Center     Atomic      Atomic             Coordinates (Angstroms)
 Number     Number       Type             X           Y           Z
 ---------------------------------------------------------------------
      1          6           0        0.000000    0.000000    0.625645
      2          6           0        0.000000    0.000000   -0.625645
      3          1           0        0.000000    0.000000   -1.664938
      4          1           0       -0.000000    0.000000    1.664938
 ---------------------------------------------------------------------
 Rotational constants (GHZ):      0.0000000     33.7329244     33.7329244
 Leave Link  202 at Fri Jun 28 11:36:40 2024, MaxMem=   33554432 cpu:       0.0
 (Enter /programs/64bit/g09/g09-gfortran/bin/l301.exe)
 Standard basis: 6-31+G(d,p) (6D, 7F)
 Ernie: Thresh=  0.10000D-02 Tol=  0.10000D-05 Strict=F.
 There are    13 symmetry adapted basis functions of AG  symmetry.
 There are     1 symmetry adapted basis functions of B1G symmetry.
 There are     5 symmetry adapted basis functions of B2G symmetry.
 There are     5 symmetry adapted basis functions of B3G symmetry.
 There are     1 symmetry adapted basis functions of AU  symmetry.
 There are    13 symmetry adapted basis functions of B1U symmetry.
 There are     5 symmetry adapted basis functions of B2U symmetry.
 There are     5 symmetry adapted basis functions of B3U symmetry.
 Integral buffers will be    131072 words long.
 Raffenetti 2 integral format.
 Two-electron integral symmetry is turned on.
    48 basis functions,    78 primitive gaussians,    48 cartesian basis functions
     7 alpha electrons        7 beta electrons
       nuclear repulsion energy        24.2658351811 Hartrees.
 IExCor=  402 DFT=T Ex+Corr=B3LYP ExCW=0 ScaHFX=  0.200000
 ScaDFX=  0.800000  0.720000  1.000000  0.810000 ScalE2=  1.000000  1.000000
 IRadAn=      0 IRanWt=     -1 IRanGd=            0 ICorTp=0
 NAtoms=    4 NActive=    4 NUniq=    2 SFac= 3.00D+00 NAtFMM=   80 NAOKFM=F Big=F
 Leave Link  301 at Fri Jun 28 11:36:40 2024, MaxMem=   33554432 cpu:       0.0
 (Enter /programs/64bit/g09/g09-gfortran/bin/l302.exe)
 NPDir=0 NMtPBC=     1 NCelOv=     1 NCel=       1 NClECP=     1 NCelD=      1
         NCelK=      1 NCelE2=     1 NClLst=     1 CellRange=     0.0.
 One-electron integrals computed using PRISM.
 One-electron integral symmetry used in STVInt
 NBasis=    48 RedAO= T  NBF=    13     1     5     5     1    13     5     5
 NBsUse=    48 1.00D-06 NBFU=    13     1     5     5     1    13     5     5
 Precomputing XC quadrature grid using
 IXCGrd= 2 IRadAn=           0 IRanWt=          -1 IRanGd=           0 AccXCQ= 1.00D-10.
 NRdTot=     254 NPtTot=       32136 NUsed=       33979 NTot=       34011
 NSgBfM=    48    48    48    48    48 NAtAll=     4     4.
 Leave Link  302 at Fri Jun 28 11:36:40 2024, MaxMem=   33554432 cpu:       0.1
 (Enter /programs/64bit/g09/g09-gfortran/bin/l303.exe)
 DipDrv:  MaxL=1.
 Leave Link  303 at Fri Jun 28 11:36:40 2024, MaxMem=   33554432 cpu:       0.0
 (Enter /programs/64bit/g09/g09-gfortran/bin/l401.exe)
 Initial guess read from the read-write file.
 B after Tr=     0.000000    0.000000    0.000000
         Rot=    1.000000    0.000000    0.000000    0.000000 Ang=   0.00 deg.
 Guess basis will be translated and rotated to current coordinates.
 Initial guess orbital symmetries:
       Occupied  (SGG) (SGU) (SGG) (SGU) (SGG) (PIU) (PIU)
       Virtual   (PIG) (PIG) (SGU) (SGG) (PIU) (PIU) (SGG) (PIG)
                 (PIG) (SGU) (SGU) (SGG) (SGU) (PIU) (PIU) (SGG)
                 (PIG) (PIG) (SGU) (SGG) (SGU) (SGG) (PIU) (PIU)
                 (SGU) (DLTG) (DLTG) (DLTU) (DLTU) (PIG) (PIG)
                 (SGG) (PIU) (PIU) (SGU) (PIG) (PIG) (SGG) (SGU)
                 (SGG) (SGU)
 The electronic state of the initial guess is 1-SGG.
 Generating alternative initial guess.
 Harris functional with IExCor=  402 diagonalized for initial guess.
 ExpMin= 4.38D-02 ExpMax= 3.05D+03 ExpMxC= 4.57D+02 IAcc=2 IRadAn=         0 AccDes= 0.00D+00
 HarFok:  IExCor=  402 AccDes= 0.00D+00 IRadAn=         0 IDoV= 1
 ScaDFX=  1.000000  1.000000  1.000000  1.000000
 FoFCou: FMM=F IPFlag=           0 FMFlag=      100000 FMFlg1=           0
         NFxFlg=           0 DoJE=T BraDBF=F KetDBF=T FulRan=T
         Omega=  0.000000  0.000000  1.000000  0.000000  0.000000 ICntrl=     500 IOpCl=  0
         NMat0=    1 NMatS0=    1 NMatT0=    0 NMatD0=    1 NMtDS0=    0 NMtDT0=    0
         I1Cent=           4 NGrid=           0.
 Petite list used in FoFCou.
 Harris En= -77.3711050823879    
 Leave Link  401 at Fri Jun 28 11:36:40 2024, MaxMem=   33554432 cpu:       0.1
 (Enter /programs/64bit/g09/g09-gfortran/bin/l502.exe)
 Closed shell SCF:
 Requested convergence on RMS density matrix=1.00D-08 within 128 cycles.
 Requested convergence on MAX density matrix=1.00D-06.
 Requested convergence on             energy=1.00D-06.
 No special actions if energy rises.
 Using DIIS extrapolation, IDIIS=  1040.
 Integral symmetry usage will be decided dynamically.
        33930 words used for storage of precomputed grid.
 Keep R1 ints in memory in canonical form, NReq=1619420.
 IEnd=       59796 IEndB=       59796 NGot=    33554432 MDV=    32821525
 LenX=    32821525 LenY=    32818780
 Symmetry not used in FoFDir.
 MinBra= 0 MaxBra= 2 Meth= 1.
 IRaf=       0 NMat=   1 IRICut=       1 DoRegI=T DoRafI=F ISym2E= 0 JSym2E=0.

 Cycle   1  Pass 1  IDiag  1:
 E= -77.3262981350920    
 DIIS: error= 1.33D-02 at cycle   1 NSaved=   1.
 NSaved= 1 IEnMin= 1 EnMin= -77.3262981350920     IErMin= 1 ErrMin= 1.33D-02
 ErrMax= 1.33D-02 EMaxC= 1.00D-01 BMatC= 4.95D-03 BMatP= 4.95D-03
 IDIUse=3 WtCom= 8.67D-01 WtEn= 1.33D-01
 Coeff-Com:  0.100D+01
 Coeff-En:   0.100D+01
 Coeff:      0.100D+01
 Recover alternate guess density for next cycle.
 RMSDP=5.51D-03 MaxDP=5.53D-02              OVMax= 0.00D+00

 Cycle   2  Pass 1  IDiag  1:
 E= -77.2668056411742     Delta-E=        0.059492493918 Rises=F Damp=F
 Switch densities from cycles 1 and 2 for lowest energy.
 DIIS: error= 4.49D-02 at cycle   2 NSaved=   2.
 NSaved= 2 IEnMin= 1 EnMin= -77.3262981350920     IErMin= 1 ErrMin= 1.33D-02
 ErrMax= 4.49D-02 EMaxC= 1.00D+00 BMatC= 5.43D-02 BMatP= 4.95D-03
 IDIUse=1 WtCom= 1.00D+00 WtEn= 0.00D+00
 Coeff-Com:  0.802D+00 0.198D+00
 Coeff:      0.802D+00 0.198D+00
 Gap=     0.304 Goal=   None    Shift=    0.000
 RMSDP=2.26D-03 MaxDP=1.81D-02 DE= 5.95D-02 OVMax= 2.54D-02

 Cycle   3  Pass 1  IDiag  1:
 E= -77.3323809074408     Delta-E=       -0.065575266267 Rises=F Damp=F
 DIIS: error= 1.63D-03 at cycle   3 NSaved=   3.
 NSaved= 3 IEnMin= 3 EnMin= -77.3323809074408     IErMin= 3 ErrMin= 1.63D-03
 ErrMax= 1.63D-03 EMaxC= 1.00D+00 BMatC= 1.19D-04 BMatP= 4.95D-03
 IDIUse=1 WtCom= 1.00D+00 WtEn= 0.00D+00
 Coeff-Com:  0.734D-01 0.381D-01 0.889D+00
 Coeff:      0.734D-01 0.381D-01 0.889D+00
 Gap=     0.295 Goal=   None    Shift=    0.000
 RMSDP=2.66D-04 MaxDP=2.10D-03 DE=-6.56D-02 OVMax= 4.52D-03

 Cycle   4  Pass 1  IDiag  1:
 E= -77.3325019763831     Delta-E=       -0.000121068942 Rises=F Damp=F
 DIIS: error= 3.23D-04 at cycle   4 NSaved=   4.
 NSaved= 4 IEnMin= 4 EnMin= -77.3325019763831     IErMin= 4 ErrMin= 3.23D-04
 ErrMax= 3.23D-04 EMaxC= 1.00D+00 BMatC= 3.24D-06 BMatP= 1.19D-04
 IDIUse=1 WtCom= 1.00D+00 WtEn= 0.00D+00
 Coeff-Com: -0.634D-02-0.399D-02 0.991D-01 0.911D+00
 Coeff:     -0.634D-02-0.399D-02 0.991D-01 0.911D+00
 Gap=     0.295 Goal=   None    Shift=    0.000
 RMSDP=5.11D-05 MaxDP=4.28D-04 DE=-1.21D-04 OVMax= 6.40D-04

 Cycle   5  Pass 1  IDiag  1:
 E= -77.3325056979931     Delta-E=       -0.000003721610 Rises=F Damp=F
 DIIS: error= 1.59D-05 at cycle   5 NSaved=   5.
 NSaved= 5 IEnMin= 5 EnMin= -77.3325056979931     IErMin= 5 ErrMin= 1.59D-05
 ErrMax= 1.59D-05 EMaxC= 1.00D+00 BMatC= 5.44D-09 BMatP= 3.24D-06
 IDIUse=1 WtCom= 1.00D+00 WtEn= 0.00D+00
 Coeff-Com:  0.837D-05-0.295D-03-0.327D-02-0.107D-01 0.101D+01
 Coeff:      0.837D-05-0.295D-03-0.327D-02-0.107D-01 0.101D+01
 Gap=     0.295 Goal=   None    Shift=    0.000
 RMSDP=2.20D-06 MaxDP=2.51D-05 DE=-3.72D-06 OVMax= 3.01D-05

 Cycle   6  Pass 1  IDiag  1:
 E= -77.3325057036646     Delta-E=       -0.000000005671 Rises=F Damp=F
 DIIS: error= 1.08D-06 at cycle   6 NSaved=   6.
 NSaved= 6 IEnMin= 6 EnMin= -77.3325057036646     IErMin= 6 ErrMin= 1.08D-06
 ErrMax= 1.08D-06 EMaxC= 1.00D+00 BMatC= 2.81D-11 BMatP= 5.44D-09
 IDIUse=1 WtCom= 1.00D+00 WtEn= 0.00D+00
 Coeff-Com:  0.528D-05-0.170D-04-0.676D-03-0.462D-02 0.109D+00 0.896D+00
 Coeff:      0.528D-05-0.170D-04-0.676D-03-0.462D-02 0.109D+00 0.896D+00
 Gap=     0.295 Goal=   None    Shift=    0.000
 RMSDP=2.41D-07 MaxDP=1.79D-06 DE=-5.67D-09 OVMax= 2.69D-06

 Cycle   7  Pass 1  IDiag  1:
 E= -77.3325057037040     Delta-E=       -0.000000000039 Rises=F Damp=F
 DIIS: error= 1.93D-07 at cycle   7 NSaved=   7.
 NSaved= 7 IEnMin= 7 EnMin= -77.3325057037040     IErMin= 7 ErrMin= 1.93D-07
 ErrMax= 1.93D-07 EMaxC= 1.00D+00 BMatC= 5.72D-13 BMatP= 2.81D-11
 IDIUse=1 WtCom= 1.00D+00 WtEn= 0.00D+00
 Coeff-Com:  0.391D-05 0.210D-05-0.227D-04-0.299D-03-0.931D-02 0.265D-01
 Coeff-Com:  0.983D+00
 Coeff:      0.391D-05 0.210D-05-0.227D-04-0.299D-03-0.931D-02 0.265D-01
 Coeff:      0.983D+00
 Gap=     0.295 Goal=   None    Shift=    0.000
 RMSDP=1.94D-08 MaxDP=2.05D-07 DE=-3.95D-11 OVMax= 3.75D-07

 Cycle   8  Pass 1  IDiag  1:
 E= -77.3325057037047     Delta-E=       -0.000000000001 Rises=F Damp=F
 DIIS: error= 3.78D-09 at cycle   8 NSaved=   8.
 NSaved= 8 IEnMin= 8 EnMin= -77.3325057037047     IErMin= 8 ErrMin= 3.78D-09
 ErrMax= 3.78D-09 EMaxC= 1.00D+00 BMatC= 4.16D-16 BMatP= 5.72D-13
 IDIUse=1 WtCom= 1.00D+00 WtEn= 0.00D+00
 Coeff-Com: -0.237D-06-0.292D-07 0.338D-05 0.265D-04 0.230D-03-0.354D-02
 Coeff-Com: -0.390D-01 0.104D+01
 Coeff:     -0.237D-06-0.292D-07 0.338D-05 0.265D-04 0.230D-03-0.354D-02
 Coeff:     -0.390D-01 0.104D+01
 Gap=     0.295 Goal=   None    Shift=    0.000
 RMSDP=1.63D-09 MaxDP=9.48D-09 DE=-6.39D-13 OVMax= 1.10D-08

 SCF Done:  E(RB3LYP) =  -77.3325057037     A.U. after    8 cycles
             Convg  =    0.1635D-08             -V/T =  2.0119
 KE= 7.642072189493D+01 PE=-2.272088467505D+02 EE= 4.918978397071D+01
 Leave Link  502 at Fri Jun 28 11:36:41 2024, MaxMem=   33554432 cpu:       0.4
 (Enter /programs/64bit/g09/g09-gfortran/bin/l701.exe)
 Compute integral first derivatives.
 ... and contract with generalized density number  0.
 Leave Link  701 at Fri Jun 28 11:36:41 2024, MaxMem=   33554432 cpu:       0.0
 (Enter /programs/64bit/g09/g09-gfortran/bin/l702.exe)
 L702 exits ... SP integral derivatives will be done elsewhere.
 Leave Link  702 at Fri Jun 28 11:36:41 2024, MaxMem=   33554432 cpu:       0.1
 (Enter /programs/64bit/g09/g09-gfortran/bin/l703.exe)
 Compute integral first derivatives, UseDBF=F ICtDFT=           0.
 Integral derivatives from FoFDir, PRISM(SPDF).
 Calling FoFJK, ICntrl=      2127 FMM=F ISym2X=1 I1Cent= 0 IOpClX= 0 NMat=1 NMatS=1 NMatT=0.
 FoFCou: FMM=F IPFlag=           0 FMFlag=      100000 FMFlg1=         800
         NFxFlg=           0 DoJE=F BraDBF=F KetDBF=F FulRan=T
         Omega=  0.000000  0.000000  1.000000  0.000000  0.000000 ICntrl=    2127 IOpCl=  0
         NMat0=    1 NMatS0=    1 NMatT0=    0 NMatD0=    1 NMtDS0=    0 NMtDT0=    0
         I1Cent=           0 NGrid=           0.
 Petite list used in FoFCou.
 Leave Link  703 at Fri Jun 28 11:36:42 2024, MaxMem=   33554432 cpu:       0.2
 (Enter /programs/64bit/g09/g09-gfortran/bin/l716.exe)
 Dipole        =-7.08988887D-17 1.92596466D-33-8.88178420D-16
 ***** Axes restored to original set *****
 -------------------------------------------------------------------
 Center     Atomic                   Forces (Hartrees/Bohr)
 Number     Number              X              Y              Z
 -------------------------------------------------------------------
      1        6          -0.000000000    0.000000000    0.104749952
      2        6          -0.000000000   -0.000000000   -0.104749952
      3        1           0.000000000   -0.000000000    0.023527001
      4        1           0.000000000    0.000000000   -0.023527001
 -------------------------------------------------------------------
 Cartesian Forces:  Max     0.104749952 RMS     0.043829351
 Leave Link  716 at Fri Jun 28 11:36:42 2024, MaxMem=   33554432 cpu:       0.0
 (Enter /programs/64bit/g09/g09-gfortran/bin/l103.exe)

 GradGradGradGradGradGradGradGradGradGradGradGradGradGradGradGradGradGrad
 Berny optimization.
 Using GEDIIS/GDIIS optimizer.
 Internal  Forces:  Max     0.081222951 RMS     0.033175308
 Search for a local minimum.
 Step number   2 out of a maximum of   20
 All quantities printed in internal units (Hartrees-Bohrs-Radians)
 RMS Force = .33175D-01 SwitMx=.10000D-02 MixMth= 1
 Mixed Optimization -- RFO/linear search
 Update second derivatives using D2CorX and points    1    2
 DE= -5.53D-02 DEPred=-5.68D-02 R= 9.73D-01
 SS=  1.41D+00  RLast= 3.00D-01 DXNew= 5.0454D-01 9.0000D-01
 Trust test= 9.73D-01 RLast= 3.00D-01 DXMaxT set to 5.05D-01
 The second derivative matrix:
                          R1        R2        R3        A1        A2
           R1           0.55614
           R2          -0.02237   0.48167
           R3          -0.02237   0.00479   0.48167
           A1           0.00000  -0.00000  -0.00000   0.01425
           A2          -0.00000   0.00000   0.00000  -0.00000   0.01425
           A3          -0.00000   0.00000   0.00000  -0.00000   0.00000
           A4          -0.00000   0.00000   0.00000  -0.00000   0.00000
                          A3        A4
           A3           0.01425
           A4           0.00000   0.01425
 Use linear search instead of GDIIS.
     Eigenvalues ---    0.01425   0.01425   0.01425   0.01425   0.47424
     Eigenvalues ---    0.47688   0.56835
 RFO step:  Lambda=-1.46603026D-05 EMin= 1.42535752D-02
 Quartic linear search produced a step of  0.32396.
 Iteration  1 RMS(Cart)=  0.02544755 RMS(Int)=  0.00000000
 Iteration  2 RMS(Cart)=  0.00000000 RMS(Int)=  0.00000000
 ClnCor:  largest displacement from symmetrization is 2.17D-13 for atom     2.
 Variable       Old X    -DE/DX   Delta X   Delta X   Delta X     New X
                                 (Linear)    (Quad)   (Total)
    R1        2.36459  -0.08122  -0.09104   0.00196  -0.08909   2.27551
    R2        1.96398   0.02353   0.02406   0.00368   0.02774   1.99171
    R3        1.96398   0.02353   0.02406   0.00368   0.02774   1.99171
    A1        3.14159  -0.00000   0.00000  -0.00000   0.00000   3.14159
    A2        3.14159   0.00000   0.00000   0.00000   0.00000   3.14159
    A3        3.14159   0.00000   0.00000   0.00000   0.00000   3.14159
    A4        3.14159  -0.00000   0.00000  -0.00000   0.00000   3.14159
         Item               Value     Threshold  Converged?
 Maximum Force            0.081223     0.000450     NO 
 RMS     Force            0.033175     0.000300     NO 
 Maximum Displacement     0.044543     0.001800     NO 
 RMS     Displacement     0.025448     0.001200     NO 
 Predicted change in Energy=-5.849278D-03
 GradGradGradGradGradGradGradGradGradGradGradGradGradGradGradGradGradGrad

 Leave Link  103 at Fri Jun 28 11:36:42 2024, MaxMem=   33554432 cpu:       0.0
 (Enter /programs/64bit/g09/g09-gfortran/bin/l202.exe)
                          Input orientation:                          
 ---------------------------------------------------------------------
 Center     Atomic      Atomic             Coordinates (Angstroms)
 Number     Number       Type             X           Y           Z
 ---------------------------------------------------------------------
      1          6           0        0.000000    0.000000    0.097926
      2          6           0        0.000000    0.000000    1.302074
      3          1           0        0.000000    0.000000    2.356043
      4          1           0       -0.000000    0.000000   -0.956043
 ---------------------------------------------------------------------
                    Distance matrix (angstroms):
                    1          2          3          4
     1  C    0.000000
     2  C    1.204148   0.000000
     3  H    2.258117   1.053969   0.000000
     4  H    1.053969   2.258117   3.312087   0.000000
 Stoichiometry    C2H2
 Framework group  D*H[C*(HC.CH)]
 Deg. of freedom     2
 Full point group                 D*H     NOp   8
 Largest Abelian subgroup         D2H     NOp   8
 Largest concise Abelian subgroup C2      NOp   2
                         Standard orientation:                         
 ---------------------------------------------------------------------
 Center     Atomic      Atomic             Coordinates (Angstroms)
 Number     Number       Type             X           Y           Z
 ---------------------------------------------------------------------
      1          6           0        0.000000    0.000000    0.602074
      2          6           0        0.000000    0.000000   -0.602074
      3          1           0        0.000000    0.000000   -1.656043
      4          1           0       -0.000000    0.000000    1.656043
 ---------------------------------------------------------------------
 Rotational constants (GHZ):      0.0000000     35.5207443     35.5207443
 Leave Link  202 at Fri Jun 28 11:36:42 2024, MaxMem=   33554432 cpu:       0.0
 (Enter /programs/64bit/g09/g09-gfortran/bin/l301.exe)
 Standard basis: 6-31+G(d,p) (6D, 7F)
 Ernie: Thresh=  0.10000D-02 Tol=  0.10000D-05 Strict=F.
 There are    13 symmetry adapted basis functions of AG  symmetry.
 There are     1 symmetry adapted basis functions of B1G symmetry.
 There are     5 symmetry adapted basis functions of B2G symmetry.
 There are     5 symmetry adapted basis functions of B3G symmetry.
 There are     1 symmetry adapted basis functions of AU  symmetry.
 There are    13 symmetry adapted basis functions of B1U symmetry.
 There are     5 symmetry adapted basis functions of B2U symmetry.
 There are     5 symmetry adapted basis functions of B3U symmetry.
 Integral buffers will be    131072 words long.
 Raffenetti 2 integral format.
 Two-electron integral symmetry is turned on.
    48 basis functions,    78 primitive gaussians,    48 cartesian basis functions
     7 alpha electrons        7 beta electrons
       nuclear repulsion energy        24.8174965306 Hartrees.
 IExCor=  402 DFT=T Ex+Corr=B3LYP ExCW=0 ScaHFX=  0.200000
 ScaDFX=  0.800000  0.720000  1.000000  0.810000 ScalE2=  1.000000  1.000000
 IRadAn=      0 IRanWt=     -1 IRanGd=            0 ICorTp=0
 NAtoms=    4 NActive=    4 NUniq=    2 SFac= 3.00D+00 NAtFMM=   80 NAOKFM=F Big=F
 Leave Link  301 at Fri Jun 28 11:36:42 2024, MaxMem=   33554432 cpu:       0.0
 (Enter /programs/64bit/g09/g09-gfortran/bin/l302.exe)
 NPDir=0 NMtPBC=     1 NCelOv=     1 NCel=       1 NClECP=     1 NCelD=      1
         NCelK=      1 NCelE2=     1 NClLst=     1 CellRange=     0.0.
 One-electron integrals computed using PRISM.
 One-electron integral symmetry used in STVInt
 NBasis=    48 RedAO= T  NBF=    13     1     5     5     1    13     5     5
 NBsUse=    48 1.00D-06 NBFU=    13     1     5     5     1    13     5     5
 Precomputing XC quadrature grid using
 IXCGrd= 2 IRadAn=           0 IRanWt=          -1 IRanGd=           0 AccXCQ= 1.00D-10.
 NRdTot=     254 NPtTot=       32136 NUsed=       33979 NTot=       34011
 NSgBfM=    48    48    48    48    48 NAtAll=     4     4.
 Leave Link  302 at Fri Jun 28 11:36:42 2024, MaxMem=   33554432 cpu:       0.2
 (Enter /programs/64bit/g09/g09-gfortran/bin/l303.exe)
 DipDrv:  MaxL=1.
 Leave Link  303 at Fri Jun 28 11:36:42 2024, MaxMem=   33554432 cpu:       0.0
 (Enter /programs/64bit/g09/g09-gfortran/bin/l401.exe)
 Initial guess read from the read-write file.
 B after Tr=     0.000000    0.000000    0.000000
         Rot=    1.000000    0.000000    0.000000    0.000000 Ang=   0.00 deg.
 Guess basis will be translated and rotated to current coordinates.
 Initial guess orbital symmetries:
       Occupied  (SGG) (SGU) (SGG) (SGU) (SGG) (PIU) (PIU)
       Virtual   (PIG) (PIG) (SGU) (SGG) (PIU) (PIU) (SGG) (PIG)
                 (PIG) (SGU) (SGU) (SGG) (SGU) (PIU) (PIU) (SGG)
                 (PIG) (PIG) (SGU) (SGG) (SGG) (SGU) (PIU) (PIU)
                 (SGU) (DLTG) (DLTG) (DLTU) (DLTU) (PIG) (PIG)
                 (SGG) (PIU) (PIU) (SGU) (PIG) (PIG) (SGG) (SGU)
                 (SGG) (SGU)
 The electronic state of the initial guess is 1-SGG.
 Generating alternative initial guess.
 Harris functional with IExCor=  402 diagonalized for initial guess.
 ExpMin= 4.38D-02 ExpMax= 3.05D+03 ExpMxC= 4.57D+02 IAcc=2 IRadAn=         0 AccDes= 0.00D+00
 HarFok:  IExCor=  402 AccDes= 0.00D+00 IRadAn=         0 IDoV= 1
 ScaDFX=  1.000000  1.000000  1.000000  1.000000
 FoFCou: FMM=F IPFlag=           0 FMFlag=      100000 FMFlg1=           0
         NFxFlg=           0 DoJE=T BraDBF=F KetDBF=T FulRan=T
         Omega=  0.000000  0.000000  1.000000  0.000000  0.000000 ICntrl=     500 IOpCl=  0
         NMat0=    1 NMatS0=    1 NMatT0=    0 NMatD0=    1 NMtDS0=    0 NMtDT0=    0
         I1Cent=           4 NGrid=           0.
 Petite list used in FoFCou.
 Harris En= -77.3872560162170    
 Leave Link  401 at Fri Jun 28 11:36:42 2024, MaxMem=   33554432 cpu:       0.2
 (Enter /programs/64bit/g09/g09-gfortran/bin/l502.exe)
 Closed shell SCF:
 Requested convergence on RMS density matrix=1.00D-08 within 128 cycles.
 Requested convergence on MAX density matrix=1.00D-06.
 Requested convergence on             energy=1.00D-06.
 No special actions if energy rises.
 Using DIIS extrapolation, IDIIS=  1040.
 Integral symmetry usage will be decided dynamically.
        33930 words used for storage of precomputed grid.
 Keep R1 ints in memory in canonical form, NReq=1619420.
 IEnd=       59796 IEndB=       59796 NGot=    33554432 MDV=    32821525
 LenX=    32821525 LenY=    32818780
 Symmetry not used in FoFDir.
 MinBra= 0 MaxBra= 2 Meth= 1.
 IRaf=       0 NMat=   1 IRICut=       1 DoRegI=T DoRafI=F ISym2E= 0 JSym2E=0.

 Cycle   1  Pass 1  IDiag  1:
 E= -77.3360501082136    
 DIIS: error= 5.00D-03 at cycle   1 NSaved=   1.
 NSaved= 1 IEnMin= 1 EnMin= -77.3360501082136     IErMin= 1 ErrMin= 5.00D-03
 ErrMax= 5.00D-03 EMaxC= 1.00D-01 BMatC= 6.62D-04 BMatP= 6.62D-04
 IDIUse=3 WtCom= 9.50D-01 WtEn= 5.00D-02
 Coeff-Com:  0.100D+01
 Coeff-En:   0.100D+01
 Coeff:      0.100D+01
 Gap=     0.316 Goal=   None    Shift=    0.000
 GapD=    0.316 DampG=1.000 DampE=1.000 DampFc=1.0000 IDamp=-1.
 RMSDP=1.02D-03 MaxDP=7.03D-03              OVMax= 1.52D-02

 Cycle   2  Pass 1  IDiag  1:
 E= -77.3365454943238     Delta-E=       -0.000495386110 Rises=F Damp=F
 DIIS: error= 3.79D-03 at cycle   2 NSaved=   2.
 NSaved= 2 IEnMin= 2 EnMin= -77.3365454943238     IErMin= 2 ErrMin= 3.79D-03
 ErrMax= 3.79D-03 EMaxC= 1.00D-01 BMatC= 3.15D-04 BMatP= 6.62D-04
 IDIUse=3 WtCom= 9.62D-01 WtEn= 3.79D-02
 Coeff-Com:  0.395D+00 0.605D+00
 Coeff-En:   0.136D+00 0.864D+00
 Coeff:      0.385D+00 0.615D+00
 Gap=     0.311 Goal=   None    Shift=    0.000
 RMSDP=3.71D-04 MaxDP=3.31D-03 DE=-4.95D-04 OVMax= 7.02D-03

 Cycle   3  Pass 1  IDiag  1:
 E= -77.3368574844404     Delta-E=       -0.000311990117 Rises=F Damp=F
 DIIS: error= 6.96D-04 at cycle   3 NSaved=   3.
 NSaved= 3 IEnMin= 3 EnMin= -77.3368574844404     IErMin= 3 ErrMin= 6.96D-04
 ErrMax= 6.96D-04 EMaxC= 1.00D-01 BMatC= 1.18D-05 BMatP= 3.15D-04
 IDIUse=3 WtCom= 9.93D-01 WtEn= 6.96D-03
 Coeff-Com:  0.244D-01 0.168D+00 0.807D+00
 Coeff-En:   0.000D+00 0.000D+00 0.100D+01
 Coeff:      0.243D-01 0.167D+00 0.809D+00
 Gap=     0.311 Goal=   None    Shift=    0.000
 RMSDP=7.47D-05 MaxDP=6.82D-04 DE=-3.12D-04 OVMax= 1.53D-03

 Cycle   4  Pass 1  IDiag  1:
 E= -77.3368717364453     Delta-E=       -0.000014252005 Rises=F Damp=F
 DIIS: error= 8.17D-05 at cycle   4 NSaved=   4.
 NSaved= 4 IEnMin= 4 EnMin= -77.3368717364453     IErMin= 4 ErrMin= 8.17D-05
 ErrMax= 8.17D-05 EMaxC= 1.00D-01 BMatC= 2.23D-07 BMatP= 1.18D-05
 IDIUse=1 WtCom= 1.00D+00 WtEn= 0.00D+00
 Coeff-Com: -0.408D-02-0.184D-02 0.126D+00 0.880D+00
 Coeff:     -0.408D-02-0.184D-02 0.126D+00 0.880D+00
 Gap=     0.311 Goal=   None    Shift=    0.000
 RMSDP=1.17D-05 MaxDP=1.08D-04 DE=-1.43D-05 OVMax= 1.64D-04

 Cycle   5  Pass 1  IDiag  1:
 E= -77.3368719945954     Delta-E=       -0.000000258150 Rises=F Damp=F
 DIIS: error= 5.45D-06 at cycle   5 NSaved=   5.
 NSaved= 5 IEnMin= 5 EnMin= -77.3368719945954     IErMin= 5 ErrMin= 5.45D-06
 ErrMax= 5.45D-06 EMaxC= 1.00D-01 BMatC= 6.58D-10 BMatP= 2.23D-07
 IDIUse=1 WtCom= 1.00D+00 WtEn= 0.00D+00
 Coeff-Com: -0.492D-03-0.193D-02 0.992D-02 0.100D+00 0.892D+00
 Coeff:     -0.492D-03-0.193D-02 0.992D-02 0.100D+00 0.892D+00
 Gap=     0.311 Goal=   None    Shift=    0.000
 RMSDP=7.88D-07 MaxDP=8.78D-06 DE=-2.58D-07 OVMax= 9.50D-06

 Cycle   6  Pass 1  IDiag  1:
 E= -77.3368719952429     Delta-E=       -0.000000000648 Rises=F Damp=F
 DIIS: error= 3.24D-07 at cycle   6 NSaved=   6.
 NSaved= 6 IEnMin= 6 EnMin= -77.3368719952429     IErMin= 6 ErrMin= 3.24D-07
 ErrMax= 3.24D-07 EMaxC= 1.00D-01 BMatC= 4.62D-12 BMatP= 6.58D-10
 IDIUse=1 WtCom= 1.00D+00 WtEn= 0.00D+00
 Coeff-Com:  0.284D-04-0.126D-03-0.118D-02-0.771D-02 0.215D-01 0.987D+00
 Coeff:      0.284D-04-0.126D-03-0.118D-02-0.771D-02 0.215D-01 0.987D+00
 Gap=     0.311 Goal=   None    Shift=    0.000
 RMSDP=8.74D-08 MaxDP=6.86D-07 DE=-6.48D-10 OVMax= 1.04D-06

 Cycle   7  Pass 1  IDiag  1:
 E= -77.3368719952486     Delta-E=       -0.000000000006 Rises=F Damp=F
 DIIS: error= 1.57D-08 at cycle   7 NSaved=   7.
 NSaved= 7 IEnMin= 7 EnMin= -77.3368719952486     IErMin= 7 ErrMin= 1.57D-08
 ErrMax= 1.57D-08 EMaxC= 1.00D-01 BMatC= 9.03D-15 BMatP= 4.62D-12
 IDIUse=1 WtCom= 1.00D+00 WtEn= 0.00D+00
 Coeff-Com:  0.273D-07 0.702D-05-0.660D-05 0.233D-04-0.230D-02-0.173D-01
 Coeff-Com:  0.102D+01
 Coeff:      0.273D-07 0.702D-05-0.660D-05 0.233D-04-0.230D-02-0.173D-01
 Coeff:      0.102D+01
 Gap=     0.311 Goal=   None    Shift=    0.000
 RMSDP=3.50D-09 MaxDP=2.32D-08 DE=-5.68D-12 OVMax= 6.87D-08

 SCF Done:  E(RB3LYP) =  -77.3368719952     A.U. after    7 cycles
             Convg  =    0.3501D-08             -V/T =  2.0100
 KE= 7.657455479240D+01 PE=-2.284928991963D+02 EE= 4.976397587804D+01
 Leave Link  502 at Fri Jun 28 11:36:43 2024, MaxMem=   33554432 cpu:       0.5
 (Enter /programs/64bit/g09/g09-gfortran/bin/l701.exe)
 Compute integral first derivatives.
 ... and contract with generalized density number  0.
 Leave Link  701 at Fri Jun 28 11:36:43 2024, MaxMem=   33554432 cpu:       0.0
 (Enter /programs/64bit/g09/g09-gfortran/bin/l702.exe)
 L702 exits ... SP integral derivatives will be done elsewhere.
 Leave Link  702 at Fri Jun 28 11:36:43 2024, MaxMem=   33554432 cpu:       0.0
 (Enter /programs/64bit/g09/g09-gfortran/bin/l703.exe)
 Compute integral first derivatives, UseDBF=F ICtDFT=           0.
 Integral derivatives from FoFDir, PRISM(SPDF).
 Calling FoFJK, ICntrl=      2127 FMM=F ISym2X=1 I1Cent= 0 IOpClX= 0 NMat=1 NMatS=1 NMatT=0.
 FoFCou: FMM=F IPFlag=           0 FMFlag=      100000 FMFlg1=         800
         NFxFlg=           0 DoJE=F BraDBF=F KetDBF=F FulRan=T
         Omega=  0.000000  0.000000  1.000000  0.000000  0.000000 ICntrl=    2127 IOpCl=  0
         NMat0=    1 NMatS0=    1 NMatT0=    0 NMatD0=    1 NMtDS0=    0 NMtDT0=    0
         I1Cent=           0 NGrid=           0.
 Petite list used in FoFCou.
 Leave Link  703 at Fri Jun 28 11:36:43 2024, MaxMem=   33554432 cpu:       0.6
 (Enter /programs/64bit/g09/g09-gfortran/bin/l716.exe)
 Dipole        =-7.03563630D-17 9.63331683D-34 8.88178420D-16
 ***** Axes restored to original set *****
 -------------------------------------------------------------------
 Center     Atomic                   Forces (Hartrees/Bohr)
 Number     Number              X              Y              Z
 -------------------------------------------------------------------
      1        6          -0.000000000    0.000000000    0.002060259
      2        6          -0.000000000   -0.000000000   -0.002060259
      3        1           0.000000000   -0.000000000    0.010106213
      4        1           0.000000000    0.000000000   -0.010106213
 -------------------------------------------------------------------
 Cartesian Forces:  Max     0.010106213 RMS     0.004210705
 Leave Link  716 at Fri Jun 28 11:36:43 2024, MaxMem=   33554432 cpu:       0.0
 (Enter /programs/64bit/g09/g09-gfortran/bin/l103.exe)

 GradGradGradGradGradGradGradGradGradGradGradGradGradGradGradGradGradGrad
 Berny optimization.
 Using GEDIIS/GDIIS optimizer.
 Internal  Forces:  Max     0.010106213 RMS     0.006199176
 Search for a local minimum.
 Step number   3 out of a maximum of   20
 All quantities printed in internal units (Hartrees-Bohrs-Radians)
 RMS Force = .61992D-02 SwitMx=.10000D-02 MixMth= 1
 Mixed Optimization -- RFO/linear search
 Update second derivatives using D2CorX and points    1    2    3
 DE= -4.37D-03 DEPred=-5.85D-03 R= 7.46D-01
 SS=  1.41D+00  RLast= 9.73D-02 DXNew= 8.4853D-01 2.9201D-01
 Trust test= 7.46D-01 RLast= 9.73D-02 DXMaxT set to 5.05D-01
 The second derivative matrix:
                          R1        R2        R3        A1        A2
           R1           0.99377
           R2          -0.01333   0.45898
           R3          -0.01333  -0.01790   0.45898
           A1           0.00000  -0.00000  -0.00000   0.01425
           A2          -0.00000   0.00000   0.00000  -0.00000   0.01425
           A3           0.00000  -0.00000  -0.00000   0.00000  -0.00000
           A4          -0.00000   0.00000   0.00000  -0.00000   0.00000
                          A3        A4
           A3           0.01425
           A4          -0.00000   0.01425
 Use linear search instead of GDIIS.
     Eigenvalues ---    0.01425   0.01425   0.01425   0.01425   0.44044
     Eigenvalues ---    0.47688   0.99441
 RFO step:  Lambda=-5.37557169D-04 EMin= 1.42535752D-02
 Quartic linear search produced a step of -0.01603.
 Iteration  1 RMS(Cart)=  0.01489329 RMS(Int)=  0.00000000
 Iteration  2 RMS(Cart)=  0.00000000 RMS(Int)=  0.00000000
 ClnCor:  largest displacement from symmetrization is 1.23D-13 for atom     2.
 Variable       Old X    -DE/DX   Delta X   Delta X   Delta X     New X
                                 (Linear)    (Quad)   (Total)
    R1        2.27551   0.00805   0.00143   0.00713   0.00856   2.28407
    R2        1.99171   0.01011  -0.00044   0.02370   0.02325   2.01497
    R3        1.99171   0.01011  -0.00044   0.02370   0.02325   2.01497
    A1        3.14159   0.00000   0.00000   0.00000   0.00000   3.14159
    A2        3.14159  -0.00000   0.00000   0.00000   0.00000   3.14159
    A3        3.14159   0.00000   0.00000   0.00000   0.00000   3.14159
    A4        3.14159  -0.00000   0.00000  -0.00000   0.00000   3.14159
         Item               Value     Threshold  Converged?
 Maximum Force            0.010106     0.000450     NO 
 RMS     Force            0.006199     0.000300     NO 
 Maximum Displacement     0.027532     0.001800     NO 
 RMS     Displacement     0.014893     0.001200     NO 
 Predicted change in Energy=-2.692772D-04
 GradGradGradGradGradGradGradGradGradGradGradGradGradGradGradGradGradGrad

 Leave Link  103 at Fri Jun 28 11:36:44 2024, MaxMem=   33554432 cpu:       0.0
 (Enter /programs/64bit/g09/g09-gfortran/bin/l202.exe)
                          Input orientation:                          
 ---------------------------------------------------------------------
 Center     Atomic      Atomic             Coordinates (Angstroms)
 Number     Number       Type             X           Y           Z
 ---------------------------------------------------------------------
      1          6           0        0.000000    0.000000    0.095662
      2          6           0        0.000000    0.000000    1.304338
      3          1           0        0.000000    0.000000    2.370613
      4          1           0       -0.000000    0.000000   -0.970613
 ---------------------------------------------------------------------
                    Distance matrix (angstroms):
                    1          2          3          4
     1  C    0.000000
     2  C    1.208676   0.000000
     3  H    2.274951   1.066275   0.000000
     4  H    1.066275   2.274951   3.341226   0.000000
 Stoichiometry    C2H2
 Framework group  D*H[C*(HC.CH)]
 Deg. of freedom     2
 Full point group                 D*H     NOp   8
 Largest Abelian subgroup         D2H     NOp   8
 Largest concise Abelian subgroup C2      NOp   2
                         Standard orientation:                         
 ---------------------------------------------------------------------
 Center     Atomic      Atomic             Coordinates (Angstroms)
 Number     Number       Type             X           Y           Z
 ---------------------------------------------------------------------
      1          6           0        0.000000    0.000000    0.604338
      2          6           0        0.000000    0.000000   -0.604338
      3          1           0        0.000000    0.000000   -1.670613
      4          1           0       -0.000000    0.000000    1.670613
 ---------------------------------------------------------------------
 Rotational constants (GHZ):      0.0000000     35.1177949     35.1177949
 Leave Link  202 at Fri Jun 28 11:36:44 2024, MaxMem=   33554432 cpu:       0.0
 (Enter /programs/64bit/g09/g09-gfortran/bin/l301.exe)
 Standard basis: 6-31+G(d,p) (6D, 7F)
 Ernie: Thresh=  0.10000D-02 Tol=  0.10000D-05 Strict=F.
 There are    13 symmetry adapted basis functions of AG  symmetry.
 There are     1 symmetry adapted basis functions of B1G symmetry.
 There are     5 symmetry adapted basis functions of B2G symmetry.
 There are     5 symmetry adapted basis functions of B3G symmetry.
 There are     1 symmetry adapted basis functions of AU  symmetry.
 There are    13 symmetry adapted basis functions of B1U symmetry.
 There are     5 symmetry adapted basis functions of B2U symmetry.
 There are     5 symmetry adapted basis functions of B3U symmetry.
 Integral buffers will be    131072 words long.
 Raffenetti 2 integral format.
 Two-electron integral symmetry is turned on.
    48 basis functions,    78 primitive gaussians,    48 cartesian basis functions
     7 alpha electrons        7 beta electrons
       nuclear repulsion energy        24.6664901245 Hartrees.
 IExCor=  402 DFT=T Ex+Corr=B3LYP ExCW=0 ScaHFX=  0.200000
 ScaDFX=  0.800000  0.720000  1.000000  0.810000 ScalE2=  1.000000  1.000000
 IRadAn=      0 IRanWt=     -1 IRanGd=            0 ICorTp=0
 NAtoms=    4 NActive=    4 NUniq=    2 SFac= 3.00D+00 NAtFMM=   80 NAOKFM=F Big=F
 Leave Link  301 at Fri Jun 28 11:36:44 2024, MaxMem=   33554432 cpu:       0.0
 (Enter /programs/64bit/g09/g09-gfortran/bin/l302.exe)
 NPDir=0 NMtPBC=     1 NCelOv=     1 NCel=       1 NClECP=     1 NCelD=      1
         NCelK=      1 NCelE2=     1 NClLst=     1 CellRange=     0.0.
 One-electron integrals computed using PRISM.
 One-electron integral symmetry used in STVInt
 NBasis=    48 RedAO= T  NBF=    13     1     5     5     1    13     5     5
 NBsUse=    48 1.00D-06 NBFU=    13     1     5     5     1    13     5     5
 Precomputing XC quadrature grid using
 IXCGrd= 2 IRadAn=           0 IRanWt=          -1 IRanGd=           0 AccXCQ= 1.00D-10.
 NRdTot=     254 NPtTot=       32136 NUsed=       33979 NTot=       34011
 NSgBfM=    48    48    48    48    48 NAtAll=     4     4.
 Leave Link  302 at Fri Jun 28 11:36:44 2024, MaxMem=   33554432 cpu:       0.1
 (Enter /programs/64bit/g09/g09-gfortran/bin/l303.exe)
 DipDrv:  MaxL=1.
 Leave Link  303 at Fri Jun 28 11:36:44 2024, MaxMem=   33554432 cpu:       0.0
 (Enter /programs/64bit/g09/g09-gfortran/bin/l401.exe)
 Initial guess read from the read-write file.
 B after Tr=     0.000000    0.000000    0.000000
         Rot=    1.000000    0.000000    0.000000    0.000000 Ang=   0.00 deg.
 Guess basis will be translated and rotated to current coordinates.
 Initial guess orbital symmetries:
       Occupied  (SGG) (SGU) (SGG) (SGU) (SGG) (PIU) (PIU)
       Virtual   (PIG) (PIG) (SGU) (SGG) (PIU) (PIU) (SGG) (PIG)
                 (PIG) (SGU) (SGU) (SGG) (SGU) (PIU) (PIU) (SGG)
                 (PIG) (PIG) (SGU) (SGG) (SGG) (SGU) (PIU) (PIU)
                 (SGU) (DLTG) (DLTG) (DLTU) (DLTU) (PIG) (PIG)
                 (SGG) (PIU) (PIU) (SGU) (PIG) (PIG) (SGG) (SGU)
                 (SGG) (SGU)
 The electronic state of the initial guess is 1-SGG.
 Generating alternative initial guess.
 Harris functional with IExCor=  402 diagonalized for initial guess.
 ExpMin= 4.38D-02 ExpMax= 3.05D+03 ExpMxC= 4.57D+02 IAcc=2 IRadAn=         0 AccDes= 0.00D+00
 HarFok:  IExCor=  402 AccDes= 0.00D+00 IRadAn=         0 IDoV= 1
 ScaDFX=  1.000000  1.000000  1.000000  1.000000
 FoFCou: FMM=F IPFlag=           0 FMFlag=      100000 FMFlg1=           0
         NFxFlg=           0 DoJE=T BraDBF=F KetDBF=T FulRan=T
         Omega=  0.000000  0.000000  1.000000  0.000000  0.000000 ICntrl=     500 IOpCl=  0
         NMat0=    1 NMatS0=    1 NMatT0=    0 NMatD0=    1 NMtDS0=    0 NMtDT0=    0
         I1Cent=           4 NGrid=           0.
 Petite list used in FoFCou.
 Harris En= -77.3855465726694    
 Leave Link  401 at Fri Jun 28 11:36:44 2024, MaxMem=   33554432 cpu:       0.1
 (Enter /programs/64bit/g09/g09-gfortran/bin/l502.exe)
 Closed shell SCF:
 Requested convergence on RMS density matrix=1.00D-08 within 128 cycles.
 Requested convergence on MAX density matrix=1.00D-06.
 Requested convergence on             energy=1.00D-06.
 No special actions if energy rises.
 Using DIIS extrapolation, IDIIS=  1040.
 Integral symmetry usage will be decided dynamically.
        33930 words used for storage of precomputed grid.
 Keep R1 ints in memory in canonical form, NReq=1619420.
 IEnd=       59796 IEndB=       59796 NGot=    33554432 MDV=    32821525
 LenX=    32821525 LenY=    32818780
 Symmetry not used in FoFDir.
 MinBra= 0 MaxBra= 2 Meth= 1.
 IRaf=       0 NMat=   1 IRICut=       1 DoRegI=T DoRafI=F ISym2E= 0 JSym2E=0.

 Cycle   1  Pass 1  IDiag  1:
 E= -77.3370867227703    
 DIIS: error= 1.06D-03 at cycle   1 NSaved=   1.
 NSaved= 1 IEnMin= 1 EnMin= -77.3370867227703     IErMin= 1 ErrMin= 1.06D-03
 ErrMax= 1.06D-03 EMaxC= 1.00D-01 BMatC= 4.03D-05 BMatP= 4.03D-05
 IDIUse=3 WtCom= 9.89D-01 WtEn= 1.06D-02
 Coeff-Com:  0.100D+01
 Coeff-En:   0.100D+01
 Coeff:      0.100D+01
 Gap=     0.309 Goal=   None    Shift=    0.000
 GapD=    0.309 DampG=1.000 DampE=1.000 DampFc=1.0000 IDamp=-1.
 RMSDP=3.08D-04 MaxDP=2.20D-03              OVMax= 3.35D-03

 Cycle   2  Pass 1  IDiag  1:
 E= -77.3371278217408     Delta-E=       -0.000041098970 Rises=F Damp=F
 DIIS: error= 4.26D-04 at cycle   2 NSaved=   2.
 NSaved= 2 IEnMin= 2 EnMin= -77.3371278217408     IErMin= 2 ErrMin= 4.26D-04
 ErrMax= 4.26D-04 EMaxC= 1.00D-01 BMatC= 7.39D-06 BMatP= 4.03D-05
 IDIUse=3 WtCom= 9.96D-01 WtEn= 4.26D-03
 Coeff-Com:  0.257D+00 0.743D+00
 Coeff-En:   0.000D+00 0.100D+01
 Coeff:      0.256D+00 0.744D+00
 Gap=     0.310 Goal=   None    Shift=    0.000
 RMSDP=8.23D-05 MaxDP=7.45D-04 DE=-4.11D-05 OVMax= 1.51D-03

 Cycle   3  Pass 1  IDiag  1:
 E= -77.3371352565383     Delta-E=       -0.000007434798 Rises=F Damp=F
 DIIS: error= 2.70D-04 at cycle   3 NSaved=   3.
 NSaved= 3 IEnMin= 3 EnMin= -77.3371352565383     IErMin= 3 ErrMin= 2.70D-04
 ErrMax= 2.70D-04 EMaxC= 1.00D-01 BMatC= 1.48D-06 BMatP= 7.39D-06
 IDIUse=3 WtCom= 9.97D-01 WtEn= 2.70D-03
 Coeff-Com:  0.414D-01 0.320D+00 0.639D+00
 Coeff-En:   0.000D+00 0.473D-01 0.953D+00
 Coeff:      0.413D-01 0.319D+00 0.640D+00
 Gap=     0.310 Goal=   None    Shift=    0.000
 RMSDP=2.56D-05 MaxDP=2.30D-04 DE=-7.43D-06 OVMax= 4.39D-04

 Cycle   4  Pass 1  IDiag  1:
 E= -77.3371369030761     Delta-E=       -0.000001646538 Rises=F Damp=F
 DIIS: error= 1.86D-05 at cycle   4 NSaved=   4.
 NSaved= 4 IEnMin= 4 EnMin= -77.3371369030761     IErMin= 4 ErrMin= 1.86D-05
 ErrMax= 1.86D-05 EMaxC= 1.00D-01 BMatC= 8.80D-09 BMatP= 1.48D-06
 IDIUse=1 WtCom= 1.00D+00 WtEn= 0.00D+00
 Coeff-Com: -0.337D-02 0.256D-01 0.103D+00 0.875D+00
 Coeff:     -0.337D-02 0.256D-01 0.103D+00 0.875D+00
 Gap=     0.310 Goal=   None    Shift=    0.000
 RMSDP=2.58D-06 MaxDP=1.75D-05 DE=-1.65D-06 OVMax= 3.10D-05

 Cycle   5  Pass 1  IDiag  1:
 E= -77.3371369123731     Delta-E=       -0.000000009297 Rises=F Damp=F
 DIIS: error= 1.29D-06 at cycle   5 NSaved=   5.
 NSaved= 5 IEnMin= 5 EnMin= -77.3371369123731     IErMin= 5 ErrMin= 1.29D-06
 ErrMax= 1.29D-06 EMaxC= 1.00D-01 BMatC= 4.82D-11 BMatP= 8.80D-09
 IDIUse=1 WtCom= 1.00D+00 WtEn= 0.00D+00
 Coeff-Com: -0.822D-03-0.352D-04 0.379D-02 0.946D-01 0.902D+00
 Coeff:     -0.822D-03-0.352D-04 0.379D-02 0.946D-01 0.902D+00
 Gap=     0.310 Goal=   None    Shift=    0.000
 RMSDP=1.22D-07 MaxDP=8.15D-07 DE=-9.30D-09 OVMax= 1.75D-06

 Cycle   6  Pass 1  IDiag  1:
 E= -77.3371369124098     Delta-E=       -0.000000000037 Rises=F Damp=F
 DIIS: error= 1.62D-07 at cycle   6 NSaved=   6.
 NSaved= 6 IEnMin= 6 EnMin= -77.3371369124098     IErMin= 6 ErrMin= 1.62D-07
 ErrMax= 1.62D-07 EMaxC= 1.00D-01 BMatC= 3.86D-13 BMatP= 4.82D-11
 IDIUse=1 WtCom= 1.00D+00 WtEn= 0.00D+00
 Coeff-Com:  0.289D-04-0.164D-03-0.108D-02-0.494D-02-0.142D-01 0.102D+01
 Coeff:      0.289D-04-0.164D-03-0.108D-02-0.494D-02-0.142D-01 0.102D+01
 Gap=     0.310 Goal=   None    Shift=    0.000
 RMSDP=2.27D-08 MaxDP=1.78D-07 DE=-3.66D-11 OVMax= 3.77D-07

 Cycle   7  Pass 1  IDiag  1:
 E= -77.3371369124104     Delta-E=       -0.000000000001 Rises=F Damp=F
 DIIS: error= 3.57D-09 at cycle   7 NSaved=   7.
 NSaved= 7 IEnMin= 7 EnMin= -77.3371369124104     IErMin= 7 ErrMin= 3.57D-09
 ErrMax= 3.57D-09 EMaxC= 1.00D-01 BMatC= 4.81D-16 BMatP= 3.86D-13
 IDIUse=1 WtCom= 1.00D+00 WtEn= 0.00D+00
 Coeff-Com:  0.102D-05-0.106D-05 0.152D-04-0.150D-03-0.186D-02-0.121D-01
 Coeff-Com:  0.101D+01
 Coeff:      0.102D-05-0.106D-05 0.152D-04-0.150D-03-0.186D-02-0.121D-01
 Coeff:      0.101D+01
 Gap=     0.310 Goal=   None    Shift=    0.000
 RMSDP=8.57D-10 MaxDP=4.92D-09 DE=-6.25D-13 OVMax= 1.52D-08

 SCF Done:  E(RB3LYP) =  -77.3371369124     A.U. after    7 cycles
             Convg  =    0.8572D-09             -V/T =  2.0107
 KE= 7.651619964396D+01 PE=-2.281500629634D+02 EE= 4.963023628249D+01
 Leave Link  502 at Fri Jun 28 11:36:44 2024, MaxMem=   33554432 cpu:       0.0
 (Enter /programs/64bit/g09/g09-gfortran/bin/l701.exe)
 Compute integral first derivatives.
 ... and contract with generalized density number  0.
 Leave Link  701 at Fri Jun 28 11:36:45 2024, MaxMem=   33554432 cpu:       0.1
 (Enter /programs/64bit/g09/g09-gfortran/bin/l702.exe)
 L702 exits ... SP integral derivatives will be done elsewhere.
 Leave Link  702 at Fri Jun 28 11:36:45 2024, MaxMem=   33554432 cpu:       0.0
 (Enter /programs/64bit/g09/g09-gfortran/bin/l703.exe)
 Compute integral first derivatives, UseDBF=F ICtDFT=           0.
 Integral derivatives from FoFDir, PRISM(SPDF).
 Calling FoFJK, ICntrl=      2127 FMM=F ISym2X=1 I1Cent= 0 IOpClX= 0 NMat=1 NMatS=1 NMatT=0.
 FoFCou: FMM=F IPFlag=           0 FMFlag=      100000 FMFlg1=         800
         NFxFlg=           0 DoJE=F BraDBF=F KetDBF=F FulRan=T
         Omega=  0.000000  0.000000  1.000000  0.000000  0.000000 ICntrl=    2127 IOpCl=  0
         NMat0=    1 NMatS0=    1 NMatT0=    0 NMatD0=    1 NMtDS0=    0 NMtDT0=    0
         I1Cent=           0 NGrid=           0.
 Petite list used in FoFCou.
 Leave Link  703 at Fri Jun 28 11:36:45 2024, MaxMem=   33554432 cpu:       0.3
 (Enter /programs/64bit/g09/g09-gfortran/bin/l716.exe)
 Dipole        =-7.34803565D-17 7.70349102D-34 0.00000000D+00
 ***** Axes restored to original set *****
 -------------------------------------------------------------------
 Center     Atomic                   Forces (Hartrees/Bohr)
 Number     Number              X              Y              Z
 -------------------------------------------------------------------
      1        6          -0.000000000    0.000000000    0.001476531
      2        6          -0.000000000   -0.000000000   -0.001476531
      3        1           0.000000000   -0.000000000    0.000168776
      4        1           0.000000000    0.000000000   -0.000168776
 -------------------------------------------------------------------
 Cartesian Forces:  Max     0.001476531 RMS     0.000606716
 Leave Link  716 at Fri Jun 28 11:36:45 2024, MaxMem=   33554432 cpu:       0.0
 (Enter /programs/64bit/g09/g09-gfortran/bin/l103.exe)

 GradGradGradGradGradGradGradGradGradGradGradGradGradGradGradGradGradGrad
 Berny optimization.
 Using GEDIIS/GDIIS optimizer.
 Internal  Forces:  Max     0.001307755 RMS     0.000502450
 Search for a local minimum.
 Step number   4 out of a maximum of   20
 All quantities printed in internal units (Hartrees-Bohrs-Radians)
 RMS Force = .50245D-03 SwitMx=.10000D-02 MixMth= 2
 Mixed Optimization -- En-DIIS/RFO-DIIS
 Update second derivatives using D2CorX and points    1    2    3    4
 DE= -2.65D-04 DEPred=-2.69D-04 R= 9.84D-01
 SS=  1.41D+00  RLast= 3.40D-02 DXNew= 8.4853D-01 1.0194D-01
 Trust test= 9.84D-01 RLast= 3.40D-02 DXMaxT set to 5.05D-01
 The second derivative matrix:
                          R1        R2        R3        A1        A2
           R1           1.02224
           R2           0.01303   0.44972
           R3           0.01303  -0.02716   0.44972
           A1           0.00000   0.00000   0.00000   0.01425
           A2          -0.00000  -0.00000  -0.00000  -0.00000   0.01425
           A3           0.00000   0.00000   0.00000   0.00000  -0.00000
           A4          -0.00000  -0.00000  -0.00000  -0.00000   0.00000
                          A3        A4
           A3           0.01425
           A4          -0.00000   0.01425
 Use linear search instead of GDIIS.
     Eigenvalues ---    0.01425   0.01425   0.01425   0.01425   0.42199
     Eigenvalues ---    0.47688   1.02280
 RFO step:  Lambda=-1.81224967D-06 EMin= 1.42535752D-02
 Quartic linear search produced a step of -0.00636.
 Iteration  1 RMS(Cart)=  0.00036312 RMS(Int)=  0.00000000
 Iteration  2 RMS(Cart)=  0.00000000 RMS(Int)=  0.00000000
 ClnCor:  largest displacement from symmetrization is 1.27D-13 for atom     2.
 Variable       Old X    -DE/DX   Delta X   Delta X   Delta X     New X
                                 (Linear)    (Quad)   (Total)
    R1        2.28407  -0.00131  -0.00005  -0.00124  -0.00129   2.28278
    R2        2.01497   0.00017  -0.00015   0.00058   0.00043   2.01540
    R3        2.01497   0.00017  -0.00015   0.00058   0.00043   2.01540
    A1        3.14159  -0.00000   0.00000  -0.00000   0.00000   3.14159
    A2        3.14159   0.00000   0.00000   0.00000   0.00000   3.14159
    A3        3.14159   0.00000   0.00000   0.00000   0.00000   3.14159
    A4        3.14159  -0.00000   0.00000  -0.00000   0.00000   3.14159
         Item               Value     Threshold  Converged?
 Maximum Force            0.001308     0.000450     NO 
 RMS     Force            0.000502     0.000300     NO 
 Maximum Displacement     0.000646     0.001800     YES
 RMS     Displacement     0.000363     0.001200     YES
 Predicted change in Energy=-9.179450D-07
 GradGradGradGradGradGradGradGradGradGradGradGradGradGradGradGradGradGrad

 Leave Link  103 at Fri Jun 28 11:36:45 2024, MaxMem=   33554432 cpu:       0.0
 (Enter /programs/64bit/g09/g09-gfortran/bin/l202.exe)
                          Input orientation:                          
 ---------------------------------------------------------------------
 Center     Atomic      Atomic             Coordinates (Angstroms)
 Number     Number       Type             X           Y           Z
 ---------------------------------------------------------------------
      1          6           0        0.000000    0.000000    0.096003
      2          6           0        0.000000    0.000000    1.303997
      3          1           0        0.000000    0.000000    2.370501
      4          1           0       -0.000000    0.000000   -0.970501
 ---------------------------------------------------------------------
                    Distance matrix (angstroms):
                    1          2          3          4
     1  C    0.000000
     2  C    1.207993   0.000000
     3  H    2.274498   1.066504   0.000000
     4  H    1.066504   2.274498   3.341002   0.000000
 Stoichiometry    C2H2
 Framework group  D*H[C*(HC.CH)]
 Deg. of freedom     2
 Full point group                 D*H     NOp   8
 Largest Abelian subgroup         D2H     NOp   8
 Largest concise Abelian subgroup C2      NOp   2
                         Standard orientation:                         
 ---------------------------------------------------------------------
 Center     Atomic      Atomic             Coordinates (Angstroms)
 Number     Number       Type             X           Y           Z
 ---------------------------------------------------------------------
      1          6           0        0.000000    0.000000    0.603997
      2          6           0        0.000000    0.000000   -0.603997
      3          1           0        0.000000    0.000000   -1.670501
      4          1           0       -0.000000    0.000000    1.670501
 ---------------------------------------------------------------------
 Rotational constants (GHZ):      0.0000000     35.1438292     35.1438292
 Leave Link  202 at Fri Jun 28 11:36:45 2024, MaxMem=   33554432 cpu:       0.0
 (Enter /programs/64bit/g09/g09-gfortran/bin/l301.exe)
 Standard basis: 6-31+G(d,p) (6D, 7F)
 Ernie: Thresh=  0.10000D-02 Tol=  0.10000D-05 Strict=F.
 There are    13 symmetry adapted basis functions of AG  symmetry.
 There are     1 symmetry adapted basis functions of B1G symmetry.
 There are     5 symmetry adapted basis functions of B2G symmetry.
 There are     5 symmetry adapted basis functions of B3G symmetry.
 There are     1 symmetry adapted basis functions of AU  symmetry.
 There are    13 symmetry adapted basis functions of B1U symmetry.
 There are     5 symmetry adapted basis functions of B2U symmetry.
 There are     5 symmetry adapted basis functions of B3U symmetry.
 Integral buffers will be    131072 words long.
 Raffenetti 2 integral format.
 Two-electron integral symmetry is turned on.
    48 basis functions,    78 primitive gaussians,    48 cartesian basis functions
     7 alpha electrons        7 beta electrons
       nuclear repulsion energy        24.6746892336 Hartrees.
 IExCor=  402 DFT=T Ex+Corr=B3LYP ExCW=0 ScaHFX=  0.200000
 ScaDFX=  0.800000  0.720000  1.000000  0.810000 ScalE2=  1.000000  1.000000
 IRadAn=      0 IRanWt=     -1 IRanGd=            0 ICorTp=0
 NAtoms=    4 NActive=    4 NUniq=    2 SFac= 3.00D+00 NAtFMM=   80 NAOKFM=F Big=F
 Leave Link  301 at Fri Jun 28 11:36:45 2024, MaxMem=   33554432 cpu:       0.0
 (Enter /programs/64bit/g09/g09-gfortran/bin/l302.exe)
 NPDir=0 NMtPBC=     1 NCelOv=     1 NCel=       1 NClECP=     1 NCelD=      1
         NCelK=      1 NCelE2=     1 NClLst=     1 CellRange=     0.0.
 One-electron integrals computed using PRISM.
 One-electron integral symmetry used in STVInt
 NBasis=    48 RedAO= T  NBF=    13     1     5     5     1    13     5     5
 NBsUse=    48 1.00D-06 NBFU=    13     1     5     5     1    13     5     5
 Precomputing XC quadrature grid using
 IXCGrd= 2 IRadAn=           0 IRanWt=          -1 IRanGd=           0 AccXCQ= 1.00D-10.
 NRdTot=     254 NPtTot=       32136 NUsed=       33979 NTot=       34011
 NSgBfM=    48    48    48    48    48 NAtAll=     4     4.
 Leave Link  302 at Fri Jun 28 11:36:45 2024, MaxMem=   33554432 cpu:       0.0
 (Enter /programs/64bit/g09/g09-gfortran/bin/l303.exe)
 DipDrv:  MaxL=1.
 Leave Link  303 at Fri Jun 28 11:36:45 2024, MaxMem=   33554432 cpu:       0.0
 (Enter /programs/64bit/g09/g09-gfortran/bin/l401.exe)
 Initial guess read from the read-write file.
 B after Tr=     0.000000    0.000000    0.000000
         Rot=    1.000000    0.000000    0.000000    0.000000 Ang=   0.00 deg.
 Guess basis will be translated and rotated to current coordinates.
 Initial guess orbital symmetries:
       Occupied  (SGG) (SGU) (SGG) (SGU) (SGG) (PIU) (PIU)
       Virtual   (PIG) (PIG) (SGU) (SGG) (PIU) (PIU) (SGG) (PIG)
                 (PIG) (SGU) (SGU) (SGG) (SGU) (PIU) (PIU) (SGG)
                 (PIG) (PIG) (SGU) (SGG) (SGG) (SGU) (PIU) (PIU)
                 (SGU) (DLTG) (DLTG) (DLTU) (DLTU) (PIG) (PIG)
                 (SGG) (PIU) (PIU) (SGU) (PIG) (PIG) (SGG) (SGU)
                 (SGG) (SGU)
 The electronic state of the initial guess is 1-SGG.
 Leave Link  401 at Fri Jun 28 11:36:45 2024, MaxMem=   33554432 cpu:       0.1
 (Enter /programs/64bit/g09/g09-gfortran/bin/l502.exe)
 Closed shell SCF:
 Requested convergence on RMS density matrix=1.00D-08 within 128 cycles.
 Requested convergence on MAX density matrix=1.00D-06.
 Requested convergence on             energy=1.00D-06.
 No special actions if energy rises.
 Using DIIS extrapolation, IDIIS=  1040.
 Integral symmetry usage will be decided dynamically.
        33930 words used for storage of precomputed grid.
 Keep R1 ints in memory in canonical form, NReq=1619420.
 IEnd=       59796 IEndB=       59796 NGot=    33554432 MDV=    32821525
 LenX=    32821525 LenY=    32818780
 Symmetry not used in FoFDir.
 MinBra= 0 MaxBra= 2 Meth= 1.
 IRaf=       0 NMat=   1 IRICut=       1 DoRegI=T DoRafI=F ISym2E= 0 JSym2E=0.

 Cycle   1  Pass 1  IDiag  1:
 E= -77.3371375524918    
 DIIS: error= 7.47D-05 at cycle   1 NSaved=   1.
 NSaved= 1 IEnMin= 1 EnMin= -77.3371375524918     IErMin= 1 ErrMin= 7.47D-05
 ErrMax= 7.47D-05 EMaxC= 1.00D-01 BMatC= 1.47D-07 BMatP= 1.47D-07
 IDIUse=1 WtCom= 1.00D+00 WtEn= 0.00D+00
 Coeff-Com:  0.100D+01
 Coeff:      0.100D+01
 Gap=     0.310 Goal=   None    Shift=    0.000
 RMSDP=1.61D-05 MaxDP=1.07D-04              OVMax= 2.29D-04

 Cycle   2  Pass 1  IDiag  1:
 E= -77.3371376633136     Delta-E=       -0.000000110822 Rises=F Damp=F
 DIIS: error= 5.67D-05 at cycle   2 NSaved=   2.
 NSaved= 2 IEnMin= 2 EnMin= -77.3371376633136     IErMin= 2 ErrMin= 5.67D-05
 ErrMax= 5.67D-05 EMaxC= 1.00D-01 BMatC= 7.01D-08 BMatP= 1.47D-07
 IDIUse=1 WtCom= 1.00D+00 WtEn= 0.00D+00
 Coeff-Com:  0.395D+00 0.605D+00
 Coeff:      0.395D+00 0.605D+00
 Gap=     0.310 Goal=   None    Shift=    0.000
 RMSDP=5.46D-06 MaxDP=4.90D-05 DE=-1.11D-07 OVMax= 1.04D-04

 Cycle   3  Pass 1  IDiag  1:
 E= -77.3371377335327     Delta-E=       -0.000000070219 Rises=F Damp=F
 DIIS: error= 9.75D-06 at cycle   3 NSaved=   3.
 NSaved= 3 IEnMin= 3 EnMin= -77.3371377335327     IErMin= 3 ErrMin= 9.75D-06
 ErrMax= 9.75D-06 EMaxC= 1.00D-01 BMatC= 2.35D-09 BMatP= 7.01D-08
 IDIUse=1 WtCom= 1.00D+00 WtEn= 0.00D+00
 Coeff-Com:  0.258D-01 0.161D+00 0.813D+00
 Coeff:      0.258D-01 0.161D+00 0.813D+00
 Gap=     0.310 Goal=   None    Shift=    0.000
 RMSDP=1.07D-06 MaxDP=9.69D-06 DE=-7.02D-08 OVMax= 2.16D-05

 Cycle   4  Pass 1  IDiag  1:
 E= -77.3371377363909     Delta-E=       -0.000000002858 Rises=F Damp=F
 DIIS: error= 1.16D-06 at cycle   4 NSaved=   4.
 NSaved= 4 IEnMin= 4 EnMin= -77.3371377363909     IErMin= 4 ErrMin= 1.16D-06
 ErrMax= 1.16D-06 EMaxC= 1.00D-01 BMatC= 4.42D-11 BMatP= 2.35D-09
 IDIUse=1 WtCom= 1.00D+00 WtEn= 0.00D+00
 Coeff-Com: -0.396D-02-0.286D-02 0.121D+00 0.886D+00
 Coeff:     -0.396D-02-0.286D-02 0.121D+00 0.886D+00
 Gap=     0.310 Goal=   None    Shift=    0.000
 RMSDP=1.63D-07 MaxDP=1.56D-06 DE=-2.86D-09 OVMax= 2.36D-06

 Cycle   5  Pass 1  IDiag  1:
 E= -77.3371377364424     Delta-E=       -0.000000000051 Rises=F Damp=F
 DIIS: error= 8.28D-08 at cycle   5 NSaved=   5.
 NSaved= 5 IEnMin= 5 EnMin= -77.3371377364424     IErMin= 5 ErrMin= 8.28D-08
 ErrMax= 8.28D-08 EMaxC= 1.00D-01 BMatC= 1.49D-13 BMatP= 4.42D-11
 IDIUse=1 WtCom= 1.00D+00 WtEn= 0.00D+00
 Coeff-Com: -0.489D-03-0.201D-02 0.929D-02 0.100D+00 0.893D+00
 Coeff:     -0.489D-03-0.201D-02 0.929D-02 0.100D+00 0.893D+00
 Gap=     0.310 Goal=   None    Shift=    0.000
 RMSDP=1.22D-08 MaxDP=1.31D-07 DE=-5.14D-11 OVMax= 1.44D-07

 Cycle   6  Pass 1  IDiag  1:
 E= -77.3371377364425     Delta-E=       -0.000000000000 Rises=F Damp=F
 DIIS: error= 5.08D-09 at cycle   6 NSaved=   6.
 NSaved= 6 IEnMin= 6 EnMin= -77.3371377364425     IErMin= 6 ErrMin= 5.08D-09
 ErrMax= 5.08D-09 EMaxC= 1.00D-01 BMatC= 1.09D-15 BMatP= 1.49D-13
 IDIUse=1 WtCom= 1.00D+00 WtEn= 0.00D+00
 Coeff-Com:  0.276D-04-0.122D-03-0.117D-02-0.795D-02 0.257D-01 0.984D+00
 Coeff:      0.276D-04-0.122D-03-0.117D-02-0.795D-02 0.257D-01 0.984D+00
 Gap=     0.310 Goal=   None    Shift=    0.000
 RMSDP=1.33D-09 MaxDP=1.04D-08 DE=-1.71D-13 OVMax= 1.61D-08

 SCF Done:  E(RB3LYP) =  -77.3371377364     A.U. after    6 cycles
             Convg  =    0.1333D-08             -V/T =  2.0107
 KE= 7.651859837090D+01 PE=-2.281691227962D+02 EE= 4.963869745519D+01
 Leave Link  502 at Fri Jun 28 11:36:47 2024, MaxMem=   33554432 cpu:       1.0
 (Enter /programs/64bit/g09/g09-gfortran/bin/l701.exe)
 Compute integral first derivatives.
 ... and contract with generalized density number  0.
 Leave Link  701 at Fri Jun 28 11:36:47 2024, MaxMem=   33554432 cpu:       0.2
 (Enter /programs/64bit/g09/g09-gfortran/bin/l702.exe)
 L702 exits ... SP integral derivatives will be done elsewhere.
 Leave Link  702 at Fri Jun 28 11:36:47 2024, MaxMem=   33554432 cpu:       0.0
 (Enter /programs/64bit/g09/g09-gfortran/bin/l703.exe)
 Compute integral first derivatives, UseDBF=F ICtDFT=           0.
 Integral derivatives from FoFDir, PRISM(SPDF).
 Calling FoFJK, ICntrl=      2127 FMM=F ISym2X=1 I1Cent= 0 IOpClX= 0 NMat=1 NMatS=1 NMatT=0.
 FoFCou: FMM=F IPFlag=           0 FMFlag=      100000 FMFlg1=         800
         NFxFlg=           0 DoJE=F BraDBF=F KetDBF=F FulRan=T
         Omega=  0.000000  0.000000  1.000000  0.000000  0.000000 ICntrl=    2127 IOpCl=  0
         NMat0=    1 NMatS0=    1 NMatT0=    0 NMatD0=    1 NMtDS0=    0 NMtDT0=    0
         I1Cent=           0 NGrid=           0.
 Petite list used in FoFCou.
 Leave Link  703 at Fri Jun 28 11:36:47 2024, MaxMem=   33554432 cpu:       0.0
 (Enter /programs/64bit/g09/g09-gfortran/bin/l716.exe)
 Dipole        =-7.34700108D-17 9.64300712D-34 1.77635684D-15
 ***** Axes restored to original set *****
 -------------------------------------------------------------------
 Center     Atomic                   Forces (Hartrees/Bohr)
 Number     Number              X              Y              Z
 -------------------------------------------------------------------
      1        6          -0.000000000    0.000000000   -0.000151786
      2        6          -0.000000000   -0.000000000    0.000151786
      3        1           0.000000000   -0.000000000   -0.000018554
      4        1           0.000000000    0.000000000    0.000018554
 -------------------------------------------------------------------
 Cartesian Forces:  Max     0.000151786 RMS     0.000062428
 Leave Link  716 at Fri Jun 28 11:36:47 2024, MaxMem=   33554432 cpu:       0.0
 (Enter /programs/64bit/g09/g09-gfortran/bin/l103.exe)

 GradGradGradGradGradGradGradGradGradGradGradGradGradGradGradGradGradGrad
 Berny optimization.
 Using GEDIIS/GDIIS optimizer.
 Internal  Forces:  Max     0.000133233 RMS     0.000051325
 Search for a local minimum.
 Step number   5 out of a maximum of   20
 All quantities printed in internal units (Hartrees-Bohrs-Radians)
 RMS Force = .51325D-04 SwitMx=.10000D-02 MixMth= 2
 Mixed Optimization -- En-DIIS/RFO-DIIS
 Swaping is turned off.
 Update second derivatives using D2CorX and points    1    2    3    4    5
 DE= -8.24D-07 DEPred=-9.18D-07 R= 8.98D-01
 Trust test= 8.98D-01 RLast= 1.43D-03 DXMaxT set to 5.05D-01
 The second derivative matrix:
                          R1        R2        R3        A1        A2
           R1           1.11508
           R2          -0.00145   0.45205
           R3          -0.00145  -0.02483   0.45205
           A1           0.00000  -0.00000  -0.00000   0.01425
           A2          -0.00000   0.00000   0.00000  -0.00000   0.01425
           A3           0.00000  -0.00000  -0.00000   0.00000  -0.00000
           A4          -0.00000   0.00000   0.00000  -0.00000   0.00000
                          A3        A4
           A3           0.01425
           A4          -0.00000   0.01425
     Eigenvalues ---    0.01425   0.01425   0.01425   0.01425   0.42721
     Eigenvalues ---    0.47688   1.11508
 En-DIIS/RFO-DIIS IScMMF=        0 using points:     5    4
 RFO step:  Lambda=-1.78512814D-08.
 DIIS coeffs:      0.90701      0.09299
 Iteration  1 RMS(Cart)=  0.00003312 RMS(Int)=  0.00000000
 Iteration  2 RMS(Cart)=  0.00000000 RMS(Int)=  0.00000000
 ClnCor:  largest displacement from symmetrization is 2.46D-13 for atom     2.
 Variable       Old X    -DE/DX   Delta X   Delta X   Delta X     New X
                                  (DIIS)     (GDIIS)  (Total)
    R1        2.28278   0.00013   0.00012  -0.00000   0.00012   2.28290
    R2        2.01540  -0.00002  -0.00004  -0.00000  -0.00004   2.01536
    R3        2.01540  -0.00002  -0.00004  -0.00000  -0.00004   2.01536
    A1        3.14159   0.00000   0.00000   0.00000   0.00000   3.14159
    A2        3.14159  -0.00000   0.00000   0.00000   0.00000   3.14159
    A3        3.14159   0.00000   0.00000   0.00000   0.00000   3.14159
    A4        3.14159  -0.00000   0.00000  -0.00000   0.00000   3.14159
         Item               Value     Threshold  Converged?
 Maximum Force            0.000133     0.000450     YES
 RMS     Force            0.000051     0.000300     YES
 Maximum Displacement     0.000060     0.001800     YES
 RMS     Displacement     0.000033     0.001200     YES
 Predicted change in Energy=-8.750307D-09
 Optimization completed.
    -- Stationary point found.
                           ----------------------------
                           !   Optimized Parameters   !
                           ! (Angstroms and Degrees)  !
 --------------------------                            --------------------------
 ! Name  Definition              Value          Derivative Info.                !
 --------------------------------------------------------------------------------
 ! R1    R(1,2)                  1.208          -DE/DX =    0.0001              !
 ! R2    R(1,4)                  1.0665         -DE/DX =    0.0                 !
 ! R3    R(2,3)                  1.0665         -DE/DX =    0.0                 !
 ! A1    L(2,1,4,-1,-1)        180.0            -DE/DX =    0.0                 !
 ! A2    L(1,2,3,-1,-1)        180.0            -DE/DX =    0.0                 !
 ! A3    L(2,1,4,-2,-2)        180.0            -DE/DX =    0.0                 !
 ! A4    L(1,2,3,-2,-2)        180.0            -DE/DX =    0.0                 !
 --------------------------------------------------------------------------------
 GradGradGradGradGradGradGradGradGradGradGradGradGradGradGradGradGradGrad

 Largest change from initial coordinates is atom    1       0.029 Angstoms.
 Leave Link  103 at Fri Jun 28 11:36:47 2024, MaxMem=   33554432 cpu:       0.0
 (Enter /programs/64bit/g09/g09-gfortran/bin/l202.exe)
                          Input orientation:                          
 ---------------------------------------------------------------------
 Center     Atomic      Atomic             Coordinates (Angstroms)
 Number     Number       Type             X           Y           Z
 ---------------------------------------------------------------------
      1          6           0        0.000000    0.000000    0.096003
      2          6           0        0.000000    0.000000    1.303997
      3          1           0        0.000000    0.000000    2.370501
      4          1           0       -0.000000    0.000000   -0.970501
 ---------------------------------------------------------------------
                    Distance matrix (angstroms):
                    1          2          3          4
     1  C    0.000000
     2  C    1.207993   0.000000
     3  H    2.274498   1.066504   0.000000
     4  H    1.066504   2.274498   3.341002   0.000000
 Stoichiometry    C2H2
 Framework group  D*H[C*(HC.CH)]
 Deg. of freedom     2
 Full point group                 D*H     NOp   8
 Largest Abelian subgroup         D2H     NOp   8
 Largest concise Abelian subgroup C2      NOp   2
                         Standard orientation:                         
 ---------------------------------------------------------------------
 Center     Atomic      Atomic             Coordinates (Angstroms)
 Number     Number       Type             X           Y           Z
 ---------------------------------------------------------------------
      1          6           0        0.000000    0.000000    0.603997
      2          6           0        0.000000    0.000000   -0.603997
      3          1           0        0.000000    0.000000   -1.670501
      4          1           0       -0.000000    0.000000    1.670501
 ---------------------------------------------------------------------
 Rotational constants (GHZ):      0.0000000     35.1438292     35.1438292
 Leave Link  202 at Fri Jun 28 11:36:48 2024, MaxMem=   33554432 cpu:       0.0
 (Enter /programs/64bit/g09/g09-gfortran/bin/l601.exe)
 Copying SCF densities to generalized density rwf, IOpCl= 0 IROHF=0.

 **********************************************************************

            Population analysis using the SCF density.

 **********************************************************************

 Orbital symmetries:
       Occupied  (SGG) (SGU) (SGG) (SGU) (SGG) (PIU) (PIU)
       Virtual   (PIG) (PIG) (SGU) (SGG) (PIU) (PIU) (SGG) (PIG)
                 (PIG) (SGU) (SGU) (SGG) (SGU) (PIU) (PIU) (SGG)
                 (PIG) (PIG) (SGU) (SGG) (SGG) (SGU) (PIU) (PIU)
                 (SGU) (DLTG) (DLTG) (DLTU) (DLTU) (PIG) (PIG)
                 (SGG) (PIU) (PIU) (SGU) (PIG) (PIG) (SGG) (SGU)
                 (SGG) (SGU)
 The electronic state is 1-SGG.
 Alpha  occ. eigenvalues --  -10.20801 -10.20565  -0.75804  -0.57529  -0.50252
 Alpha  occ. eigenvalues --   -0.29708  -0.29708
 Alpha virt. eigenvalues --    0.01292   0.01292   0.02163   0.02338   0.06922
 Alpha virt. eigenvalues --    0.06922   0.07391   0.13822   0.13822   0.15425
 Alpha virt. eigenvalues --    0.18703   0.25420   0.52765   0.65717   0.65717
 Alpha virt. eigenvalues --    0.66178   0.73144   0.73144   0.87769   0.90955
 Alpha virt. eigenvalues --    1.07251   1.25408   1.36233   1.36233   1.47181
 Alpha virt. eigenvalues --    1.53500   1.53500   1.92743   1.92744   1.92964
 Alpha virt. eigenvalues --    1.92964   2.32153   2.37055   2.37055   2.76171
 Alpha virt. eigenvalues --    3.01578   3.01578   3.42658   3.85053   4.59606
 Alpha virt. eigenvalues --    5.34469
          Condensed to atoms (all electrons):
              1          2          3          4
     1  C    4.777649   1.070605  -0.003242   0.340615
     2  C    1.070605   4.777649   0.340615  -0.003242
     3  H   -0.003242   0.340615   0.474919   0.002082
     4  H    0.340615  -0.003242   0.002082   0.474919
 Mulliken atomic charges:
              1
     1  C   -0.185627
     2  C   -0.185627
     3  H    0.185627
     4  H    0.185627
 Sum of Mulliken atomic charges =   0.00000
 Mulliken charges with hydrogens summed into heavy atoms:
              1
     1  C    0.000000
     2  C    0.000000
 Sum of Mulliken charges with hydrogens summed into heavy atoms =   0.00000
 Electronic spatial extent (au):  <R**2>=             61.4395
 Charge=              0.0000 electrons
 Dipole moment (field-independent basis, Debye):
    X=             -0.0000    Y=              0.0000    Z=              0.0000  Tot=              0.0000
 Quadrupole moment (field-independent basis, Debye-Ang):
   XX=            -13.8819   YY=            -13.8819   ZZ=             -7.0398
   XY=              0.0000   XZ=             -0.0000   YZ=              0.0000
 Traceless Quadrupole moment (field-independent basis, Debye-Ang):
   XX=             -2.2807   YY=             -2.2807   ZZ=              4.5614
   XY=              0.0000   XZ=             -0.0000   YZ=              0.0000
 Octapole moment (field-independent basis, Debye-Ang**2):
  XXX=             -0.0000  YYY=              0.0000  ZZZ=              0.0000  XYY=             -0.0000
  XXY=             -0.0000  XXZ=              0.0000  XZZ=             -0.0000  YZZ=              0.0000
  YYZ=              0.0000  XYZ=              0.0000
 Hexadecapole moment (field-independent basis, Debye-Ang**3):
 XXXX=            -18.9231 YYYY=            -18.9231 ZZZZ=            -39.5835 XXXY=              0.0000
 XXXZ=              0.0000 YYYX=              0.0000 YYYZ=              0.0000 ZZZX=              0.0000
 ZZZY=              0.0000 XXYY=             -6.3077 XXZZ=            -13.1659 YYZZ=            -13.1659
 XXYZ=              0.0000 YYXZ=              0.0000 ZZXY=              0.0000
 N-N= 2.467468923363D+01 E-N=-2.281691225646D+02  KE= 7.651859837090D+01
 Symmetry AG   KE= 3.784808547710D+01
 Symmetry B1G  KE= 9.141973438743D-35
 Symmetry B2G  KE= 1.104676686378D-32
 Symmetry B3G  KE=-4.115030681348D-20
 Symmetry AU   KE= 2.010089998747D-34
 Symmetry B1U  KE= 3.430232427644D+01
 Symmetry B2U  KE= 2.184094308678D+00
 Symmetry B3U  KE= 2.184094308678D+00
 No NMR shielding tensors so no spin-rotation constants.
 Leave Link  601 at Fri Jun 28 11:36:48 2024, MaxMem=   33554432 cpu:       0.1
 (Enter /programs/64bit/g09/g09-gfortran/bin/l9999.exe)
 B after Tr=     0.000000    0.000000    1.322808
         Rot=    0.000000   -0.000000    1.000000   -0.000000 Ang= 180.00 deg.
 Final structure in terms of initial Z-matrix:
 C
 C,1,d1
 H,2,d2,1,a1
 H,1,d3,2,a2,3,t1,0
      Variables:
      Constants:
 d1=1.20799321
 d2=1.06650443
 d3=1.06650443
 a1=179.99999879
 a2=180.
 t1=0.
 1\1\GINC-MOLMOD\FOpt\RB3LYP\6-31+G(d,p)\C2H2\OSPITE\28-Jun-2024\0\\#p 
 B3LYP/6-31+g** opt out=wfn\\ethyne\\0,1\C,0.,0.,0.0960033963\C,0.,0.,1
 .3039966037\H,0.,0.,2.3705010376\H,0.,0.,-0.9705010376\\Version=EM64L-
 G09RevA.02\State=1-SGG\HF=-77.3371377\RMSD=1.333e-09\RMSF=6.243e-05\Di
 pole=0.,0.,0.\Quadrupole=-1.6956563,-1.6956563,3.3913125,0.,0.,0.\PG=D
 *H [C*(H1C1.C1H1)]\\@

 Writing a WFN file to ethyne.wfn.


 Where a calculator on the ENIAC is equipped with 18,000
 vacuum tubes and weighs 30 tons, computers inthe future
 may  have only 1,000 vacuum tubes and weigh only 1 1/2 tons.
              ---Popular Mechanics, March 1949
 Job cpu time:  0 days  0 hours  0 minutes  9.1 seconds.
 File lengths (MBytes):  RWF=      5 Int=      0 D2E=      0 Chk=      1 Scr=      1
 Normal termination of Gaussian 09 at Fri Jun 28 11:36:48 2024.
