 ethyne                                                  
GAUSSIAN              7 MOL ORBITALS     78 PRIMITIVES        4 NUCLEI
  C    1    (CENTRE  1)  -0.00000000  0.00000000  1.14138817  CHARGE =  6.0
  C    2    (CENTRE  2)   0.00000000  0.00000000 -1.14138817  CHARGE =  6.0
  H    3    (CENTRE  3)  -0.00000000  0.00000000 -3.15678947  CHARGE =  1.0
  H    4    (CENTRE  4)  -0.00000000  0.00000000  3.15678947  CHARGE =  1.0
CENTRE ASSIGNMENTS    1  1  1  1  1  1  1  1  1  1  1  1  1  1  1  1  1  1  1  1
CENTRE ASSIGNMENTS    1  1  1  1  1  1  1  1  1  1  1  1  2  2  2  2  2  2  2  2
CENTRE ASSIGNMENTS    2  2  2  2  2  2  2  2  2  2  2  2  2  2  2  2  2  2  2  2
CENTRE ASSIGNMENTS    2  2  2  2  3  3  3  3  3  3  3  4  4  4  4  4  4  4
TYPE ASSIGNMENTS      1  1  1  1  1  1  1  1  1  2  2  2  3  3  3  4  4  4  1  2
TYPE ASSIGNMENTS      3  4  1  2  3  4  5  6  7  8  9 10  1  1  1  1  1  1  1  1
TYPE ASSIGNMENTS      1  2  2  2  3  3  3  4  4  4  1  2  3  4  1  2  3  4  5  6
TYPE ASSIGNMENTS      7  8  9 10  1  1  1  1  2  3  4  1  1  1  1  2  3  4
EXPONENTS  0.3047525D+04 0.4573695D+03 0.1039487D+03 0.2921016D+02 0.9286663D+01
EXPONENTS  0.3163927D+01 0.7868272D+01 0.1881289D+01 0.5442493D+00 0.7868272D+01
EXPONENTS  0.1881289D+01 0.5442493D+00 0.7868272D+01 0.1881289D+01 0.5442493D+00
EXPONENTS  0.7868272D+01 0.1881289D+01 0.5442493D+00 0.1687145D+00 0.1687145D+00
EXPONENTS  0.1687145D+00 0.1687145D+00 0.4380000D-01 0.4380000D-01 0.4380000D-01
EXPONENTS  0.4380000D-01 0.8000000D+00 0.8000000D+00 0.8000000D+00 0.8000000D+00
EXPONENTS  0.8000000D+00 0.8000000D+00 0.3047525D+04 0.4573695D+03 0.1039487D+03
EXPONENTS  0.2921016D+02 0.9286663D+01 0.3163927D+01 0.7868272D+01 0.1881289D+01
EXPONENTS  0.5442493D+00 0.7868272D+01 0.1881289D+01 0.5442493D+00 0.7868272D+01
EXPONENTS  0.1881289D+01 0.5442493D+00 0.7868272D+01 0.1881289D+01 0.5442493D+00
EXPONENTS  0.1687145D+00 0.1687145D+00 0.1687145D+00 0.1687145D+00 0.4380000D-01
EXPONENTS  0.4380000D-01 0.4380000D-01 0.4380000D-01 0.8000000D+00 0.8000000D+00
EXPONENTS  0.8000000D+00 0.8000000D+00 0.8000000D+00 0.8000000D+00 0.1873114D+02
EXPONENTS  0.2825394D+01 0.6401217D+00 0.1612778D+00 0.1100000D+01 0.1100000D+01
EXPONENTS  0.1100000D+01 0.1873114D+02 0.2825394D+01 0.6401217D+00 0.1612778D+00
EXPONENTS  0.1100000D+01 0.1100000D+01 0.1100000D+01
MO    1     MO 0.0        OCC NO =    2.0000000  ORB. ENERGY =  -10.208013
  0.37629677D+00  0.69419407D+00  0.11206445D+01  0.14587461D+01  0.12447507D+01
  0.42978251D+00 -0.13640661D-01 -0.62869683D-02  0.17629315D-01  0.00000000D+00
  0.00000000D+00  0.00000000D+00  0.00000000D+00  0.00000000D+00  0.00000000D+00
  0.85019456D-03  0.65187526D-03  0.32533144D-03 -0.10697340D-02  0.00000000D+00
  0.00000000D+00 -0.77055539D-04  0.50523947D-04  0.00000000D+00  0.00000000D+00
 -0.37236959D-04 -0.79629267D-02 -0.79629267D-02 -0.62293798D-02  0.00000000D+00
  0.00000000D+00  0.00000000D+00  0.37629677D+00  0.69419407D+00  0.11206445D+01
  0.14587461D+01  0.12447507D+01  0.42978251D+00 -0.13640661D-01 -0.62869683D-02
  0.17629315D-01  0.00000000D+00  0.00000000D+00  0.00000000D+00  0.00000000D+00
  0.00000000D+00  0.00000000D+00 -0.85019456D-03 -0.65187526D-03 -0.32533144D-03
 -0.10697340D-02  0.00000000D+00  0.00000000D+00  0.77055539D-04  0.50523947D-04
  0.00000000D+00  0.00000000D+00  0.37236959D-04 -0.79629267D-02 -0.79629267D-02
 -0.62293798D-02  0.00000000D+00  0.00000000D+00  0.00000000D+00 -0.18992930D-03
 -0.32215604D-03 -0.36676327D-03  0.22959293D-03  0.00000000D+00  0.00000000D+00
 -0.92859732D-03 -0.18992930D-03 -0.32215604D-03 -0.36676327D-03  0.22959293D-03
  0.00000000D+00  0.00000000D+00  0.92859732D-03
MO    2     MO 0.0        OCC NO =    2.0000000  ORB. ENERGY =  -10.205649
  0.37671716D+00  0.69496960D+00  0.11218964D+01  0.14603758D+01  0.12461413D+01
  0.43026265D+00 -0.14319074D-01 -0.65996482D-02  0.18506103D-01  0.00000000D+00
  0.00000000D+00  0.00000000D+00  0.00000000D+00  0.00000000D+00  0.00000000D+00
 -0.10112650D-02 -0.77537388D-03 -0.38696591D-03 -0.33228383D-02  0.00000000D+00
  0.00000000D+00  0.10552350D-02  0.22863767D-02  0.00000000D+00  0.00000000D+00
 -0.22368919D-03 -0.77078886D-02 -0.77078886D-02 -0.54379751D-02  0.00000000D+00
  0.00000000D+00  0.00000000D+00 -0.37671716D+00 -0.69496960D+00 -0.11218964D+01
 -0.14603758D+01 -0.12461413D+01 -0.43026265D+00  0.14319074D-01  0.65996482D-02
 -0.18506103D-01  0.00000000D+00  0.00000000D+00  0.00000000D+00  0.00000000D+00
  0.00000000D+00  0.00000000D+00 -0.10112650D-02 -0.77537388D-03 -0.38696591D-03
  0.33228383D-02  0.00000000D+00  0.00000000D+00  0.10552350D-02 -0.22863767D-02
  0.00000000D+00  0.00000000D+00 -0.22368919D-03  0.77078886D-02  0.77078886D-02
  0.54379751D-02  0.00000000D+00  0.00000000D+00  0.00000000D+00  0.21692165D-03
  0.36794017D-03  0.41888688D-03  0.18645217D-03  0.00000000D+00  0.00000000D+00
  0.10537597D-02 -0.21692165D-03 -0.36794017D-03 -0.41888688D-03 -0.18645217D-03
  0.00000000D+00  0.00000000D+00  0.10537597D-02
MO    3     MO 0.0        OCC NO =    2.0000000  ORB. ENERGY =   -0.758045
 -0.93756442D-01 -0.17296233D+00 -0.27921483D+00 -0.36345474D+00 -0.31013659D+00
 -0.10708271D+00 -0.13291624D+00 -0.61260975D-01  0.17178217D+00  0.00000000D+00
  0.00000000D+00  0.00000000D+00  0.00000000D+00  0.00000000D+00  0.00000000D+00
 -0.19586840D+00 -0.15017947D+00 -0.74950079D-01  0.47632324D-01  0.00000000D+00
  0.00000000D+00  0.34316458D-02  0.17892796D-03  0.00000000D+00  0.00000000D+00
  0.24164605D-03 -0.18633244D-01 -0.18633244D-01  0.10934712D-01  0.00000000D+00
  0.00000000D+00  0.00000000D+00 -0.93756442D-01 -0.17296233D+00 -0.27921483D+00
 -0.36345474D+00 -0.31013659D+00 -0.10708271D+00 -0.13291624D+00 -0.61260975D-01
  0.17178217D+00  0.00000000D+00  0.00000000D+00  0.00000000D+00  0.00000000D+00
  0.00000000D+00  0.00000000D+00  0.19586840D+00  0.15017947D+00  0.74950079D-01
  0.47632324D-01  0.00000000D+00  0.00000000D+00 -0.34316458D-02  0.17892796D-03
  0.00000000D+00  0.00000000D+00 -0.24164605D-03 -0.18633244D-01 -0.18633244D-01
  0.10934712D-01  0.00000000D+00  0.00000000D+00  0.00000000D+00  0.16625548D-01
  0.28200076D-01  0.32104790D-01 -0.18300915D-02  0.00000000D+00  0.00000000D+00
  0.12948926D-01  0.16625548D-01  0.28200076D-01  0.32104790D-01 -0.18300915D-02
  0.00000000D+00  0.00000000D+00 -0.12948926D-01
MO    4     MO 0.0        OCC NO =    2.0000000  ORB. ENERGY =   -0.575294
 -0.61078891D-01 -0.11267863D+00 -0.18189824D+00 -0.23677747D+00 -0.20204264D+00
 -0.69760468D-01 -0.92016514D-01 -0.42410327D-01  0.11892298D+00  0.00000000D+00
  0.00000000D+00  0.00000000D+00  0.00000000D+00  0.00000000D+00  0.00000000D+00
  0.26827486D+00  0.20569615D+00  0.10265679D+00  0.34739117D-01  0.00000000D+00
  0.00000000D+00  0.13119037D-01 -0.69803405D-02  0.00000000D+00  0.00000000D+00
  0.85911668D-03 -0.11631647D-01 -0.11631647D-01  0.54527427D-02  0.00000000D+00
  0.00000000D+00  0.00000000D+00  0.61078891D-01  0.11267863D+00  0.18189824D+00
  0.23677747D+00  0.20204264D+00  0.69760468D-01  0.92016514D-01  0.42410327D-01
 -0.11892298D+00  0.00000000D+00  0.00000000D+00  0.00000000D+00  0.00000000D+00
  0.00000000D+00  0.00000000D+00  0.26827486D+00  0.20569615D+00  0.10265679D+00
 -0.34739117D-01  0.00000000D+00  0.00000000D+00  0.13119037D-01  0.69803405D-02
  0.00000000D+00  0.00000000D+00  0.85911668D-03  0.11631647D-01  0.11631647D-01
 -0.54527427D-02  0.00000000D+00  0.00000000D+00  0.00000000D+00 -0.47224965D-01
 -0.80102479D-01 -0.91193841D-01 -0.19645522D-01  0.00000000D+00  0.00000000D+00
 -0.20164243D-01  0.47224965D-01  0.80102479D-01  0.91193841D-01  0.19645522D-01
  0.00000000D+00  0.00000000D+00 -0.20164243D-01
MO    5     MO 0.0        OCC NO =    2.0000000  ORB. ENERGY =   -0.502517
  0.82371976D-03  0.15196021D-02  0.24531090D-02  0.31932190D-02  0.27247796D-02
  0.94080090D-03 -0.35787733D-02 -0.16494533D-02  0.46252393D-02  0.00000000D+00
  0.00000000D+00  0.00000000D+00  0.00000000D+00  0.00000000D+00  0.00000000D+00
  0.50425703D+00  0.38663231D+00  0.19295662D+00  0.19201531D-02  0.00000000D+00
  0.00000000D+00  0.94295303D-02  0.31760909D-03  0.00000000D+00  0.00000000D+00
  0.12419733D-03  0.15623366D-02  0.15623366D-02  0.71028249D-02  0.00000000D+00
  0.00000000D+00  0.00000000D+00  0.82371976D-03  0.15196021D-02  0.24531090D-02
  0.31932190D-02  0.27247796D-02  0.94080090D-03 -0.35787733D-02 -0.16494533D-02
  0.46252393D-02  0.00000000D+00  0.00000000D+00  0.00000000D+00  0.00000000D+00
  0.00000000D+00  0.00000000D+00 -0.50425703D+00 -0.38663231D+00 -0.19295662D+00
  0.19201531D-02  0.00000000D+00  0.00000000D+00 -0.94295303D-02  0.31760909D-03
  0.00000000D+00  0.00000000D+00 -0.12419733D-03  0.15623366D-02  0.15623366D-02
  0.71028249D-02  0.00000000D+00  0.00000000D+00  0.00000000D+00  0.48520085D-01
  0.82299248D-01  0.93694785D-01  0.33641149D-01  0.00000000D+00  0.00000000D+00
  0.14112263D-01  0.48520085D-01  0.82299248D-01  0.93694785D-01  0.33641149D-01
  0.00000000D+00  0.00000000D+00 -0.14112263D-01
MO    6     MO 0.0        OCC NO =    2.0000000  ORB. ENERGY =   -0.297083
  0.00000000D+00  0.00000000D+00  0.00000000D+00  0.00000000D+00  0.00000000D+00
  0.00000000D+00 -0.00000000D+00 -0.00000000D+00  0.00000000D+00  0.54566240D+00
  0.41837932D+00  0.20880060D+00  0.00000000D+00  0.00000000D+00  0.00000000D+00
  0.00000000D+00  0.00000000D+00  0.00000000D+00  0.00000000D+00  0.34718684D-01
  0.00000000D+00  0.00000000D+00  0.00000000D+00  0.13154459D-02  0.00000000D+00
  0.00000000D+00  0.00000000D+00  0.00000000D+00  0.00000000D+00  0.00000000D+00
 -0.35637109D-01  0.00000000D+00  0.00000000D+00  0.00000000D+00  0.00000000D+00
  0.00000000D+00  0.00000000D+00  0.00000000D+00 -0.00000000D+00 -0.00000000D+00
  0.00000000D+00  0.54566240D+00  0.41837932D+00  0.20880060D+00  0.00000000D+00
  0.00000000D+00  0.00000000D+00  0.00000000D+00  0.00000000D+00  0.00000000D+00
  0.00000000D+00  0.34718684D-01  0.00000000D+00  0.00000000D+00  0.00000000D+00
  0.13154459D-02  0.00000000D+00  0.00000000D+00  0.00000000D+00  0.00000000D+00
  0.00000000D+00  0.00000000D+00  0.35637109D-01  0.00000000D+00  0.00000000D+00
  0.00000000D+00  0.00000000D+00  0.00000000D+00  0.18802142D-01  0.00000000D+00
  0.00000000D+00  0.00000000D+00  0.00000000D+00  0.00000000D+00  0.00000000D+00
  0.18802142D-01  0.00000000D+00  0.00000000D+00
MO    7     MO 0.0        OCC NO =    2.0000000  ORB. ENERGY =   -0.297083
  0.00000000D+00  0.00000000D+00  0.00000000D+00  0.00000000D+00  0.00000000D+00
  0.00000000D+00 -0.00000000D+00 -0.00000000D+00  0.00000000D+00  0.00000000D+00
  0.00000000D+00  0.00000000D+00  0.54566240D+00  0.41837932D+00  0.20880060D+00
  0.00000000D+00  0.00000000D+00  0.00000000D+00  0.00000000D+00  0.00000000D+00
  0.34718684D-01  0.00000000D+00  0.00000000D+00  0.00000000D+00  0.13154459D-02
  0.00000000D+00  0.00000000D+00  0.00000000D+00  0.00000000D+00  0.00000000D+00
  0.00000000D+00 -0.35637109D-01  0.00000000D+00  0.00000000D+00  0.00000000D+00
  0.00000000D+00  0.00000000D+00  0.00000000D+00 -0.00000000D+00 -0.00000000D+00
  0.00000000D+00  0.00000000D+00  0.00000000D+00  0.00000000D+00  0.54566240D+00
  0.41837932D+00  0.20880060D+00  0.00000000D+00  0.00000000D+00  0.00000000D+00
  0.00000000D+00  0.00000000D+00  0.34718684D-01  0.00000000D+00  0.00000000D+00
  0.00000000D+00  0.13154459D-02  0.00000000D+00  0.00000000D+00  0.00000000D+00
  0.00000000D+00  0.00000000D+00  0.00000000D+00  0.35637109D-01  0.00000000D+00
  0.00000000D+00  0.00000000D+00  0.00000000D+00  0.00000000D+00  0.18802142D-01
  0.00000000D+00  0.00000000D+00  0.00000000D+00  0.00000000D+00  0.00000000D+00
  0.00000000D+00  0.18802142D-01  0.00000000D+00
END DATA
 THE  HF ENERGY =    -77.337137736443 THE VIRIAL(-V/T)=   2.01069726
