 Entering Gaussian System, Link 0=/programs/64bit/g09/g09-gfortran/bin/g09
 Input=c2h6__quite_symm.com
 Output=c2h6__quite_symm.log
 Initial command:
 /programs/64bit/g09/g09-gfortran/bin/l1.exe /home/ospite/QM/c2h6/Gau-14421.inp -scrdir=/home/ospite/QM/c2h6/
 Entering Link 1 = /programs/64bit/g09/g09-gfortran/bin/l1.exe PID=     14422.
  
 Copyright (c) 1988,1990,1992,1993,1995,1998,2003,2009, Gaussian, Inc.
                  All Rights Reserved.
  
 This is part of the Gaussian(R) 09 program.  It is based on
 the Gaussian(R) 03 system (copyright 2003, Gaussian, Inc.),
 the Gaussian(R) 98 system (copyright 1998, Gaussian, Inc.),
 the Gaussian(R) 94 system (copyright 1995, Gaussian, Inc.),
 the Gaussian 92(TM) system (copyright 1992, Gaussian, Inc.),
 the Gaussian 90(TM) system (copyright 1990, Gaussian, Inc.),
 the Gaussian 88(TM) system (copyright 1988, Gaussian, Inc.),
 the Gaussian 86(TM) system (copyright 1986, Carnegie Mellon
 University), and the Gaussian 82(TM) system (copyright 1983,
 Carnegie Mellon University). Gaussian is a federally registered
 trademark of Gaussian, Inc.
  
 This software contains proprietary and confidential information,
 including trade secrets, belonging to Gaussian, Inc.
  
 This software is provided under written license and may be
 used, copied, transmitted, or stored only in accord with that
 written license.
  
 The following legend is applicable only to US Government
 contracts under FAR:
  
                    RESTRICTED RIGHTS LEGEND
  
 Use, reproduction and disclosure by the US Government is
 subject to restrictions as set forth in subparagraphs (a)
 and (c) of the Commercial Computer Software - Restricted
 Rights clause in FAR 52.227-19.
  
 Gaussian, Inc.
 340 Quinnipiac St., Bldg. 40, Wallingford CT 06492
  
  
 ---------------------------------------------------------------
 Warning -- This program may not be used in any manner that
 competes with the business of Gaussian, Inc. or will provide
 assistance to any competitor of Gaussian, Inc.  The licensee
 of this program is prohibited from giving any competitor of
 Gaussian, Inc. access to this program.  By using this program,
 the user acknowledges that Gaussian, Inc. is engaged in the
 business of creating and licensing software in the field of
 computational chemistry and represents and warrants to the
 licensee that it is not a competitor of Gaussian, Inc. and that
 it will not use this program in any manner prohibited above.
 ---------------------------------------------------------------
  

 Cite this work as:
 Gaussian 09, Revision A.02,
 M. J. Frisch, G. W. Trucks, H. B. Schlegel, G. E. Scuseria, 
 M. A. Robb, J. R. Cheeseman, G. Scalmani, V. Barone, B. Mennucci, 
 G. A. Petersson, H. Nakatsuji, M. Caricato, X. Li, H. P. Hratchian, 
 A. F. Izmaylov, J. Bloino, G. Zheng, J. L. Sonnenberg, M. Hada, 
 M. Ehara, K. Toyota, R. Fukuda, J. Hasegawa, M. Ishida, T. Nakajima, 
 Y. Honda, O. Kitao, H. Nakai, T. Vreven, J. A. Montgomery, Jr., 
 J. E. Peralta, F. Ogliaro, M. Bearpark, J. J. Heyd, E. Brothers, 
 K. N. Kudin, V. N. Staroverov, R. Kobayashi, J. Normand, 
 K. Raghavachari, A. Rendell, J. C. Burant, S. S. Iyengar, J. Tomasi, 
 M. Cossi, N. Rega, J. M. Millam, M. Klene, J. E. Knox, J. B. Cross, 
 V. Bakken, C. Adamo, J. Jaramillo, R. Gomperts, R. E. Stratmann, 
 O. Yazyev, A. J. Austin, R. Cammi, C. Pomelli, J. W. Ochterski, 
 R. L. Martin, K. Morokuma, V. G. Zakrzewski, G. A. Voth, 
 P. Salvador, J. J. Dannenberg, S. Dapprich, A. D. Daniels, 
 O. Farkas, J. B. Foresman, J. V. Ortiz, J. Cioslowski, 
 and D. J. Fox, Gaussian, Inc., Wallingford CT, 2009.
 
 ******************************************
 Gaussian 09:  EM64L-G09RevA.02 11-Jun-2009
                23-Mar-2024 
 ******************************************
 %chk=tmp
 %mem=100MB
 ----------------------------------------------
 #p B3LYP/6-31+g(d,p) opt freq pop=full gfinput
 ----------------------------------------------
 1/14=-1,18=20,19=15,26=3,38=1/1,3;
 2/9=110,12=2,17=6,18=5,40=1/2;
 3/5=1,6=6,7=111,11=2,16=1,24=10,25=1,30=1,71=1,74=-5/1,2,3;
 4//1;
 5/5=2,38=5/2;
 6/7=3,28=1/1;
 7//1,2,3,16;
 1/14=-1,18=20,19=15/3(2);
 2/9=110/2;
 99//99;
 2/9=110/2;
 3/5=1,6=6,7=111,11=2,16=1,25=1,30=1,71=1,74=-5/1,2,3;
 4/5=5,16=3/1;
 5/5=2,38=5/2;
 7//1,2,3,16;
 1/14=-1,18=20,19=15/3(-5);
 2/9=110/2;
 6/7=3,19=2,28=1/1;
 99/9=1/99;
 Leave Link    1 at Sat Mar 23 11:22:02 2024, MaxMem=   13107200 cpu:       0.0
 (Enter /programs/64bit/g09/g09-gfortran/bin/l101.exe)
 ---------
 c2h6_symm
 ---------
 Symbolic Z-matrix:
 Charge =  0 Multiplicity = 1
 c
 c                    1    cc2
 h                    1    hc3      2    hcc3
 h                    1    hc4      2    hcc4     3    dih4     0
 h                    1    hc5      2    hcc5     3    dih5     0
 h                    2    hc6      1    hcc6     3    dih6     0
 h                    2    hc7      1    hcc7     6    dih7     0
 h                    2    hc8      1    hcc8     6    dih8     0
       Variables:
  cc2                   1.5                      
  hc3                   1.1                      
  hcc3                109.5                      
  hc4                   1.1                      
  hcc4                109.5                      
  dih4                240.                       
  hc5                   1.1                      
  hcc5                109.5                      
  dih5                120.                       
  hc6                   1.1                      
  hcc6                109.5                      
  dih6                125.                       
  hc7                   1.1                      
  hcc7                109.5                      
  dih7                120.                       
  hc8                   1.1                      
  hcc8                109.5                      
  dih8                240.                       
 
 NAtoms=      8 NQM=      8 NQMF=      0 NMic=      0 NMicF=      0 NTot=      8.
                    Isotopes and Nuclear Properties:
 (Nuclear quadrupole moments (NQMom) in fm**2, nuclear magnetic moments (NMagM)
  in nuclear magnetons)

  Atom         1           2           3           4           5           6           7           8
 IAtWgt=          12          12           1           1           1           1           1           1
 AtmWgt=  12.0000000  12.0000000   1.0078250   1.0078250   1.0078250   1.0078250   1.0078250   1.0078250
 NucSpn=           0           0           1           1           1           1           1           1
 AtZEff=   0.0000000   0.0000000   0.0000000   0.0000000   0.0000000   0.0000000   0.0000000   0.0000000
 NQMom=    0.0000000   0.0000000   0.0000000   0.0000000   0.0000000   0.0000000   0.0000000   0.0000000
 NMagM=    0.0000000   0.0000000   2.7928460   2.7928460   2.7928460   2.7928460   2.7928460   2.7928460
 Leave Link  101 at Sat Mar 23 11:22:02 2024, MaxMem=   13107200 cpu:       0.0
 (Enter /programs/64bit/g09/g09-gfortran/bin/l103.exe)

 GradGradGradGradGradGradGradGradGradGradGradGradGradGradGradGradGradGrad
 Berny optimization.
 Initialization pass.
                           ----------------------------
                           !    Initial Parameters    !
                           ! (Angstroms and Degrees)  !
 --------------------------                            --------------------------
 ! Name  Definition              Value          Derivative Info.                !
 --------------------------------------------------------------------------------
 ! R1    R(1,2)                  1.5            estimate D2E/DX2                !
 ! R2    R(1,3)                  1.1            estimate D2E/DX2                !
 ! R3    R(1,4)                  1.1            estimate D2E/DX2                !
 ! R4    R(1,5)                  1.1            estimate D2E/DX2                !
 ! R5    R(2,6)                  1.1            estimate D2E/DX2                !
 ! R6    R(2,7)                  1.1            estimate D2E/DX2                !
 ! R7    R(2,8)                  1.1            estimate D2E/DX2                !
 ! A1    A(2,1,3)              109.5            estimate D2E/DX2                !
 ! A2    A(2,1,4)              109.5            estimate D2E/DX2                !
 ! A3    A(2,1,5)              109.5            estimate D2E/DX2                !
 ! A4    A(3,1,4)              109.4424         estimate D2E/DX2                !
 ! A5    A(3,1,5)              109.4424         estimate D2E/DX2                !
 ! A6    A(4,1,5)              109.4424         estimate D2E/DX2                !
 ! A7    A(1,2,6)              109.5            estimate D2E/DX2                !
 ! A8    A(1,2,7)              109.5            estimate D2E/DX2                !
 ! A9    A(1,2,8)              109.5            estimate D2E/DX2                !
 ! A10   A(6,2,7)              109.4424         estimate D2E/DX2                !
 ! A11   A(6,2,8)              109.4424         estimate D2E/DX2                !
 ! A12   A(7,2,8)              109.4424         estimate D2E/DX2                !
 ! D1    D(3,1,2,6)            125.0            estimate D2E/DX2                !
 ! D2    D(3,1,2,7)           -115.0            estimate D2E/DX2                !
 ! D3    D(3,1,2,8)              5.0            estimate D2E/DX2                !
 ! D4    D(4,1,2,6)              5.0            estimate D2E/DX2                !
 ! D5    D(4,1,2,7)            125.0            estimate D2E/DX2                !
 ! D6    D(4,1,2,8)           -115.0            estimate D2E/DX2                !
 ! D7    D(5,1,2,6)           -115.0            estimate D2E/DX2                !
 ! D8    D(5,1,2,7)              5.0            estimate D2E/DX2                !
 ! D9    D(5,1,2,8)            125.0            estimate D2E/DX2                !
 --------------------------------------------------------------------------------
 Trust Radius=3.00D-01 FncErr=1.00D-07 GrdErr=1.00D-06
 Number of steps in this run=  38 maximum allowed number of steps= 100.
 GradGradGradGradGradGradGradGradGradGradGradGradGradGradGradGradGradGrad

 Leave Link  103 at Sat Mar 23 11:22:02 2024, MaxMem=   13107200 cpu:       0.0
 (Enter /programs/64bit/g09/g09-gfortran/bin/l202.exe)
                          Input orientation:                          
 ---------------------------------------------------------------------
 Center     Atomic      Atomic             Coordinates (Angstroms)
 Number     Number       Type             X           Y           Z
 ---------------------------------------------------------------------
      1          6           0        0.000000    0.000000    0.000000
      2          6           0        0.000000    0.000000    1.500000
      3          1           0        1.036906    0.000000   -0.367188
      4          1           0       -0.518453    0.897987   -0.367188
      5          1           0       -0.518453   -0.897987   -0.367188
      6          1           0       -0.594745    0.849383    1.867188
      7          1           0       -0.438215   -0.939756    1.867188
      8          1           0        1.032960    0.090372    1.867188
 ---------------------------------------------------------------------
                    Distance matrix (angstroms):
                    1          2          3          4          5
     1  C    0.000000
     2  C    1.500000   0.000000
     3  H    1.100000   2.135782   0.000000
     4  H    1.100000   2.135782   1.795973   0.000000
     5  H    1.100000   2.135782   1.795973   1.795973   0.000000
     6  H    2.135782   1.100000   2.894161   2.236205   2.837526
     7  H    2.135782   1.100000   2.837526   2.894161   2.236205
     8  H    2.135782   1.100000   2.236205   2.837526   2.894161
                    6          7          8
     6  H    0.000000
     7  H    1.795973   0.000000
     8  H    1.795973   1.795973   0.000000
 Stoichiometry    C2H6
 Framework group  D3[C3(C.C),X(H6)]
 Deg. of freedom     4
 Full point group                 D3      NOp   6
 Largest Abelian subgroup         C2      NOp   2
 Largest concise Abelian subgroup C2      NOp   2
                         Standard orientation:                         
 ---------------------------------------------------------------------
 Center     Atomic      Atomic             Coordinates (Angstroms)
 Number     Number       Type             X           Y           Z
 ---------------------------------------------------------------------
      1          6           0        0.000000    0.000000    0.750000
      2          6           0        0.000000    0.000000   -0.750000
      3          1           0       -0.045229    1.035919    1.117188
      4          1           0        0.919747   -0.478790    1.117188
      5          1           0       -0.874517   -0.557129    1.117188
      6          1           0        0.874517   -0.557129   -1.117188
      7          1           0       -0.919747   -0.478790   -1.117188
      8          1           0        0.045229    1.035919   -1.117188
 ---------------------------------------------------------------------
 Rotational constants (GHZ):     77.7324451     20.7991960     20.7991960
 Leave Link  202 at Sat Mar 23 11:22:02 2024, MaxMem=   13107200 cpu:       0.0
 (Enter /programs/64bit/g09/g09-gfortran/bin/l301.exe)
 Standard basis: 6-31+G(d,p) (6D, 7F)
 Ernie: Thresh=  0.10000D-02 Tol=  0.10000D-05 Strict=F.
 AO basis set in the form of general basis input (Overlap normalization):
      1 0
 S   6 1.00       0.000000000000
      0.3047524880D+04  0.1834737132D-02
      0.4573695180D+03  0.1403732281D-01
      0.1039486850D+03  0.6884262226D-01
      0.2921015530D+02  0.2321844432D+00
      0.9286662960D+01  0.4679413484D+00
      0.3163926960D+01  0.3623119853D+00
 SP   3 1.00       0.000000000000
      0.7868272350D+01 -0.1193324198D+00  0.6899906659D-01
      0.1881288540D+01 -0.1608541517D+00  0.3164239610D+00
      0.5442492580D+00  0.1143456438D+01  0.7443082909D+00
 SP   1 1.00       0.000000000000
      0.1687144782D+00  0.1000000000D+01  0.1000000000D+01
 SP   1 1.00       0.000000000000
      0.4380000000D-01  0.1000000000D+01  0.1000000000D+01
 D   1 1.00       0.000000000000
      0.8000000000D+00  0.1000000000D+01
 ****
      2 0
 S   6 1.00       0.000000000000
      0.3047524880D+04  0.1834737132D-02
      0.4573695180D+03  0.1403732281D-01
      0.1039486850D+03  0.6884262226D-01
      0.2921015530D+02  0.2321844432D+00
      0.9286662960D+01  0.4679413484D+00
      0.3163926960D+01  0.3623119853D+00
 SP   3 1.00       0.000000000000
      0.7868272350D+01 -0.1193324198D+00  0.6899906659D-01
      0.1881288540D+01 -0.1608541517D+00  0.3164239610D+00
      0.5442492580D+00  0.1143456438D+01  0.7443082909D+00
 SP   1 1.00       0.000000000000
      0.1687144782D+00  0.1000000000D+01  0.1000000000D+01
 SP   1 1.00       0.000000000000
      0.4380000000D-01  0.1000000000D+01  0.1000000000D+01
 D   1 1.00       0.000000000000
      0.8000000000D+00  0.1000000000D+01
 ****
      3 0
 S   3 1.00       0.000000000000
      0.1873113696D+02  0.3349460434D-01
      0.2825394365D+01  0.2347269535D+00
      0.6401216923D+00  0.8137573261D+00
 S   1 1.00       0.000000000000
      0.1612777588D+00  0.1000000000D+01
 P   1 1.00       0.000000000000
      0.1100000000D+01  0.1000000000D+01
 ****
      4 0
 S   3 1.00       0.000000000000
      0.1873113696D+02  0.3349460434D-01
      0.2825394365D+01  0.2347269535D+00
      0.6401216923D+00  0.8137573261D+00
 S   1 1.00       0.000000000000
      0.1612777588D+00  0.1000000000D+01
 P   1 1.00       0.000000000000
      0.1100000000D+01  0.1000000000D+01
 ****
      5 0
 S   3 1.00       0.000000000000
      0.1873113696D+02  0.3349460434D-01
      0.2825394365D+01  0.2347269535D+00
      0.6401216923D+00  0.8137573261D+00
 S   1 1.00       0.000000000000
      0.1612777588D+00  0.1000000000D+01
 P   1 1.00       0.000000000000
      0.1100000000D+01  0.1000000000D+01
 ****
      6 0
 S   3 1.00       0.000000000000
      0.1873113696D+02  0.3349460434D-01
      0.2825394365D+01  0.2347269535D+00
      0.6401216923D+00  0.8137573261D+00
 S   1 1.00       0.000000000000
      0.1612777588D+00  0.1000000000D+01
 P   1 1.00       0.000000000000
      0.1100000000D+01  0.1000000000D+01
 ****
      7 0
 S   3 1.00       0.000000000000
      0.1873113696D+02  0.3349460434D-01
      0.2825394365D+01  0.2347269535D+00
      0.6401216923D+00  0.8137573261D+00
 S   1 1.00       0.000000000000
      0.1612777588D+00  0.1000000000D+01
 P   1 1.00       0.000000000000
      0.1100000000D+01  0.1000000000D+01
 ****
      8 0
 S   3 1.00       0.000000000000
      0.1873113696D+02  0.3349460434D-01
      0.2825394365D+01  0.2347269535D+00
      0.6401216923D+00  0.8137573261D+00
 S   1 1.00       0.000000000000
      0.1612777588D+00  0.1000000000D+01
 P   1 1.00       0.000000000000
      0.1100000000D+01  0.1000000000D+01
 ****

 There are    34 symmetry adapted basis functions of A   symmetry.
 There are    34 symmetry adapted basis functions of B   symmetry.
 Integral buffers will be    131072 words long.
 Raffenetti 2 integral format.
 Two-electron integral symmetry is turned on.
    68 basis functions,   106 primitive gaussians,    68 cartesian basis functions
     9 alpha electrons        9 beta electrons
       nuclear repulsion energy        42.5242167738 Hartrees.
 IExCor=  402 DFT=T Ex+Corr=B3LYP ExCW=0 ScaHFX=  0.200000
 ScaDFX=  0.800000  0.720000  1.000000  0.810000 ScalE2=  1.000000  1.000000
 IRadAn=      0 IRanWt=     -1 IRanGd=            0 ICorTp=0
 NAtoms=    8 NActive=    8 NUniq=    2 SFac= 3.00D+00 NAtFMM=   80 NAOKFM=F Big=F
 Leave Link  301 at Sat Mar 23 11:22:03 2024, MaxMem=   13107200 cpu:       0.0
 (Enter /programs/64bit/g09/g09-gfortran/bin/l302.exe)
 NPDir=0 NMtPBC=     1 NCelOv=     1 NCel=       1 NClECP=     1 NCelD=      1
         NCelK=      1 NCelE2=     1 NClLst=     1 CellRange=     0.0.
 One-electron integrals computed using PRISM.
 One-electron integral symmetry used in STVInt
 NBasis=    68 RedAO= T  NBF=    34    34
 NBsUse=    68 1.00D-06 NBFU=    34    34
 Precomputing XC quadrature grid using
 IXCGrd= 2 IRadAn=           0 IRanWt=          -1 IRanGd=           0 AccXCQ= 1.00D-10.
 NRdTot=     510 NPtTot=       65100 NUsed=       68787 NTot=       68819
 NSgBfM=    68    68    68    68    68 NAtAll=     8     8.
 Leave Link  302 at Sat Mar 23 11:22:03 2024, MaxMem=   13107200 cpu:       0.0
 (Enter /programs/64bit/g09/g09-gfortran/bin/l303.exe)
 DipDrv:  MaxL=1.
 Leave Link  303 at Sat Mar 23 11:22:03 2024, MaxMem=   13107200 cpu:       0.0
 (Enter /programs/64bit/g09/g09-gfortran/bin/l401.exe)
 Harris functional with IExCor=  402 diagonalized for initial guess.
 ExpMin= 4.38D-02 ExpMax= 3.05D+03 ExpMxC= 4.57D+02 IAcc=2 IRadAn=         0 AccDes= 0.00D+00
 HarFok:  IExCor=  402 AccDes= 0.00D+00 IRadAn=         0 IDoV= 1
 ScaDFX=  1.000000  1.000000  1.000000  1.000000
 FoFCou: FMM=F IPFlag=           0 FMFlag=      100000 FMFlg1=           0
         NFxFlg=           0 DoJE=T BraDBF=F KetDBF=T FulRan=T
         Omega=  0.000000  0.000000  1.000000  0.000000  0.000000 ICntrl=     500 IOpCl=  0
         NMat0=    1 NMatS0=    1 NMatT0=    0 NMatD0=    1 NMtDS0=    0 NMtDT0=    0
         I1Cent=           4 NGrid=           0.
 Petite list used in FoFCou.
 Harris En= -79.8931521353588    
 Initial guess orbital symmetries:
       Occupied  (A1) (A2) (A1) (A2) (E) (E) (A1) (E) (E)
       Virtual   (A1) (A2) (E) (E) (A1) (E) (E) (E) (E) (A2) (A2)
                 (E) (E) (A1) (A2) (A1) (E) (E) (A2) (E) (E) (E)
                 (E) (E) (E) (A1) (A1) (A2) (E) (E) (A2) (E) (E)
                 (A1) (E) (E) (A2) (A1) (E) (E) (E) (E) (A2) (E)
                 (E) (A1) (A2) (E) (E) (E) (E) (A1) (A2) (E) (E)
                 (E) (E) (A1) (A2)
 The electronic state of the initial guess is 1-A1.
 Leave Link  401 at Sat Mar 23 11:22:03 2024, MaxMem=   13107200 cpu:       0.1
 (Enter /programs/64bit/g09/g09-gfortran/bin/l502.exe)
 Closed shell SCF:
 Requested convergence on RMS density matrix=1.00D-08 within 128 cycles.
 Requested convergence on MAX density matrix=1.00D-06.
 Requested convergence on             energy=1.00D-06.
 No special actions if energy rises.
 Using DIIS extrapolation, IDIIS=  1040.
 Integral symmetry usage will be decided dynamically.
        68702 words used for storage of precomputed grid.
 Keep R1 ints in memory in canonical form, NReq=3743391.
 IEnd=      101856 IEndB=      101856 NGot=    13107200 MDV=    10273618
 LenX=    10273618 LenY=    10268553
 Symmetry not used in FoFDir.
 MinBra= 0 MaxBra= 2 Meth= 1.
 IRaf=       0 NMat=   1 IRICut=       1 DoRegI=T DoRafI=F ISym2E= 0 JSym2E=0.

 Cycle   1  Pass 1  IDiag  1:
 E= -79.6960913750435    
 DIIS: error= 4.07D-02 at cycle   1 NSaved=   1.
 NSaved= 1 IEnMin= 1 EnMin= -79.6960913750435     IErMin= 1 ErrMin= 4.07D-02
 ErrMax= 4.07D-02 EMaxC= 1.00D-01 BMatC= 1.22D-01 BMatP= 1.22D-01
 IDIUse=3 WtCom= 5.93D-01 WtEn= 4.07D-01
 Coeff-Com:  0.100D+01
 Coeff-En:   0.100D+01
 Coeff:      0.100D+01
 Gap=     0.274 Goal=   None    Shift=    0.000
 GapD=    0.274 DampG=1.000 DampE=0.500 DampFc=0.5000 IDamp=-1.
 Damping current iteration by 5.00D-01
 RMSDP=1.01D-02 MaxDP=1.44D-01              OVMax= 2.09D-01

 Cycle   2  Pass 1  IDiag  1:
 E= -79.7518379354482     Delta-E=       -0.055746560405 Rises=F Damp=T
 DIIS: error= 1.25D-02 at cycle   2 NSaved=   2.
 NSaved= 2 IEnMin= 2 EnMin= -79.7518379354482     IErMin= 2 ErrMin= 1.25D-02
 ErrMax= 1.25D-02 EMaxC= 1.00D-01 BMatC= 5.03D-03 BMatP= 1.22D-01
 IDIUse=3 WtCom= 8.75D-01 WtEn= 1.25D-01
 Coeff-Com:  0.118D+00 0.882D+00
 Coeff-En:   0.205D+00 0.795D+00
 Coeff:      0.129D+00 0.871D+00
 Gap=     0.349 Goal=   None    Shift=    0.000
 RMSDP=1.37D-03 MaxDP=1.18D-02 DE=-5.57D-02 OVMax= 1.31D-01

 Cycle   3  Pass 1  IDiag  1:
 E= -79.8335597901718     Delta-E=       -0.081721854724 Rises=F Damp=F
 DIIS: error= 2.05D-03 at cycle   3 NSaved=   3.
 NSaved= 3 IEnMin= 3 EnMin= -79.8335597901718     IErMin= 3 ErrMin= 2.05D-03
 ErrMax= 2.05D-03 EMaxC= 1.00D-01 BMatC= 1.40D-04 BMatP= 5.03D-03
 IDIUse=3 WtCom= 9.79D-01 WtEn= 2.05D-02
 Coeff-Com:  0.856D-02 0.943D-01 0.897D+00
 Coeff-En:   0.000D+00 0.000D+00 0.100D+01
 Coeff:      0.838D-02 0.923D-01 0.899D+00
 Gap=     0.357 Goal=   None    Shift=    0.000
 RMSDP=1.81D-04 MaxDP=2.10D-03 DE=-8.17D-02 OVMax= 4.44D-03

 Cycle   4  Pass 1  IDiag  1:
 E= -79.8336773047091     Delta-E=       -0.000117514537 Rises=F Damp=F
 DIIS: error= 6.62D-04 at cycle   4 NSaved=   4.
 NSaved= 4 IEnMin= 4 EnMin= -79.8336773047091     IErMin= 4 ErrMin= 6.62D-04
 ErrMax= 6.62D-04 EMaxC= 1.00D-01 BMatC= 9.69D-06 BMatP= 1.40D-04
 IDIUse=3 WtCom= 9.93D-01 WtEn= 6.62D-03
 Coeff-Com: -0.481D-03-0.593D-02 0.196D+00 0.810D+00
 Coeff-En:   0.000D+00 0.000D+00 0.000D+00 0.100D+01
 Coeff:     -0.478D-03-0.590D-02 0.195D+00 0.811D+00
 Gap=     0.357 Goal=   None    Shift=    0.000
 RMSDP=4.03D-05 MaxDP=3.89D-04 DE=-1.18D-04 OVMax= 1.19D-03

 Cycle   5  Pass 1  IDiag  1:
 E= -79.8336863644030     Delta-E=       -0.000009059694 Rises=F Damp=F
 DIIS: error= 2.71D-05 at cycle   5 NSaved=   5.
 NSaved= 5 IEnMin= 5 EnMin= -79.8336863644030     IErMin= 5 ErrMin= 2.71D-05
 ErrMax= 2.71D-05 EMaxC= 1.00D-01 BMatC= 2.96D-08 BMatP= 9.69D-06
 IDIUse=1 WtCom= 1.00D+00 WtEn= 0.00D+00
 Coeff-Com:  0.421D-03-0.471D-03-0.634D-02-0.105D-01 0.102D+01
 Coeff:      0.421D-03-0.471D-03-0.634D-02-0.105D-01 0.102D+01
 Gap=     0.357 Goal=   None    Shift=    0.000
 RMSDP=2.81D-06 MaxDP=3.50D-05 DE=-9.06D-06 OVMax= 8.74D-05

 Cycle   6  Pass 1  IDiag  1:
 E= -79.8336863994064     Delta-E=       -0.000000035003 Rises=F Damp=F
 DIIS: error= 9.20D-07 at cycle   6 NSaved=   6.
 NSaved= 6 IEnMin= 6 EnMin= -79.8336863994064     IErMin= 6 ErrMin= 9.20D-07
 ErrMax= 9.20D-07 EMaxC= 1.00D-01 BMatC= 2.92D-11 BMatP= 2.96D-08
 IDIUse=1 WtCom= 1.00D+00 WtEn= 0.00D+00
 Coeff-Com: -0.181D-04 0.745D-05-0.564D-03-0.207D-02-0.114D-01 0.101D+01
 Coeff:     -0.181D-04 0.745D-05-0.564D-03-0.207D-02-0.114D-01 0.101D+01
 Gap=     0.357 Goal=   None    Shift=    0.000
 RMSDP=1.59D-07 MaxDP=1.45D-06 DE=-3.50D-08 OVMax= 2.85D-06

 Cycle   7  Pass 1  IDiag  1:
 E= -79.8336863994567     Delta-E=       -0.000000000050 Rises=F Damp=F
 DIIS: error= 6.80D-08 at cycle   7 NSaved=   7.
 NSaved= 7 IEnMin= 7 EnMin= -79.8336863994567     IErMin= 7 ErrMin= 6.80D-08
 ErrMax= 6.80D-08 EMaxC= 1.00D-01 BMatC= 7.22D-14 BMatP= 2.92D-11
 IDIUse=1 WtCom= 1.00D+00 WtEn= 0.00D+00
 Coeff-Com: -0.281D-07 0.901D-06 0.427D-04 0.611D-04-0.214D-02-0.426D-01
 Coeff-Com:  0.104D+01
 Coeff:     -0.281D-07 0.901D-06 0.427D-04 0.611D-04-0.214D-02-0.426D-01
 Coeff:      0.104D+01
 Gap=     0.357 Goal=   None    Shift=    0.000
 RMSDP=8.56D-09 MaxDP=1.07D-07 DE=-5.02D-11 OVMax= 2.16D-07

 SCF Done:  E(RB3LYP) =  -79.8336863995     A.U. after    7 cycles
             Convg  =    0.8556D-08             -V/T =  2.0103
 KE= 7.902042622479D+01 PE=-2.688275937637D+02 EE= 6.744926436569D+01
 Leave Link  502 at Sat Mar 23 11:22:03 2024, MaxMem=   13107200 cpu:       0.5
 (Enter /programs/64bit/g09/g09-gfortran/bin/l601.exe)
 Copying SCF densities to generalized density rwf, IOpCl= 0 IROHF=0.

 **********************************************************************

            Population analysis using the SCF density.

 **********************************************************************

 Orbital symmetries:
       Occupied  (A1) (A2) (A1) (A2) (E) (E) (A1) (E) (E)
       Virtual   (A1) (A2) (E) (E) (A1) (E) (E) (A2) (E) (E) (A2)
                 (E) (E) (A1) (A2) (A1) (E) (E) (E) (E) (A2) (E)
                 (E) (E) (E) (A1) (A1) (A2) (E) (E) (A2) (E) (E)
                 (A1) (E) (E) (A2) (A1) (E) (E) (E) (E) (A2) (E)
                 (E) (A1) (E) (E) (A2) (E) (E) (A1) (A2) (E) (E)
                 (E) (E) (A1) (A2)
 The electronic state is 1-A1.
 Alpha  occ. eigenvalues --  -10.17495 -10.17470  -0.76048  -0.60738  -0.44300
 Alpha  occ. eigenvalues --   -0.44300  -0.36392  -0.33897  -0.33897
 Alpha virt. eigenvalues --    0.01780   0.03290   0.05189   0.05189   0.07882
 Alpha virt. eigenvalues --    0.09106   0.09106   0.14221   0.14723   0.14723
 Alpha virt. eigenvalues --    0.26648   0.26740   0.26740   0.27880   0.34997
 Alpha virt. eigenvalues --    0.60680   0.64675   0.64675   0.70104   0.70104
 Alpha virt. eigenvalues --    0.71435   0.86320   0.86320   0.97612   0.97612
 Alpha virt. eigenvalues --    1.00950   1.06196   1.12469   1.30057   1.30057
 Alpha virt. eigenvalues --    1.51076   1.71687   1.71687   1.94350   2.01968
 Alpha virt. eigenvalues --    2.01968   2.04156   2.04257   2.14011   2.14011
 Alpha virt. eigenvalues --    2.24935   2.24935   2.39367   2.59987   2.59987
 Alpha virt. eigenvalues --    2.67097   2.71486   2.71486   2.71788   2.97262
 Alpha virt. eigenvalues --    2.97262   3.17969   3.30879   3.36269   3.36269
 Alpha virt. eigenvalues --    3.48012   3.48012   4.32709   4.61107
     Molecular Orbital Coefficients:
                           1         2         3         4         5
                        (A1)--O   (A2)--O   (A1)--O   (A2)--O   (E)--O
     Eigenvalues --   -10.17495 -10.17470  -0.76048  -0.60738  -0.44300
   1 1   C  1S          0.70201   0.70226  -0.14974  -0.13071   0.00000
   2        2S          0.03504   0.03572   0.28622   0.25833   0.00000
   3        2PX        -0.00000  -0.00000   0.00000  -0.00000   0.31512
   4        2PY        -0.00000   0.00000  -0.00000  -0.00000   0.00065
   5        2PZ         0.00006  -0.00014  -0.07134   0.12761   0.00000
   6        3S         -0.00864  -0.01811   0.23344   0.28117  -0.00000
   7        3PX         0.00000   0.00000  -0.00000  -0.00000   0.13300
   8        3PY        -0.00000  -0.00000   0.00000   0.00000  -0.00091
   9        3PZ        -0.00059   0.00311  -0.01192   0.02799   0.00000
  10        4S         -0.00028  -0.00696   0.00592   0.05801   0.00000
  11        4PX         0.00000  -0.00000  -0.00000  -0.00000   0.01543
  12        4PY         0.00000  -0.00000   0.00000   0.00000  -0.00062
  13        4PZ        -0.00021   0.00154   0.00022  -0.00881  -0.00000
  14        5XX        -0.00643  -0.00612  -0.00944  -0.00144   0.00124
  15        5YY        -0.00643  -0.00612  -0.00944  -0.00144  -0.00124
  16        5ZZ        -0.00679  -0.00609   0.00268  -0.01864  -0.00000
  17        5XY         0.00000   0.00000  -0.00000   0.00000  -0.01265
  18        5XZ        -0.00000   0.00000   0.00000  -0.00000  -0.00120
  19        5YZ        -0.00000  -0.00000   0.00000   0.00000   0.00004
  20 2   C  1S          0.70201  -0.70226  -0.14974   0.13071  -0.00000
  21        2S          0.03504  -0.03572   0.28622  -0.25833  -0.00000
  22        2PX         0.00000  -0.00000  -0.00000  -0.00000   0.31512
  23        2PY        -0.00000  -0.00000  -0.00000   0.00000  -0.00065
  24        2PZ        -0.00006  -0.00014   0.07134   0.12761   0.00000
  25        3S         -0.00864   0.01811   0.23344  -0.28117   0.00000
  26        3PX        -0.00000   0.00000   0.00000  -0.00000   0.13300
  27        3PY        -0.00000   0.00000   0.00000  -0.00000   0.00091
  28        3PZ         0.00059   0.00311   0.01192   0.02799   0.00000
  29        4S         -0.00028   0.00696   0.00592  -0.05801  -0.00000
  30        4PX        -0.00000  -0.00000   0.00000  -0.00000   0.01543
  31        4PY         0.00000   0.00000   0.00000  -0.00000   0.00062
  32        4PZ         0.00021   0.00154  -0.00022  -0.00881  -0.00000
  33        5XX        -0.00643   0.00612  -0.00944   0.00144  -0.00124
  34        5YY        -0.00643   0.00612  -0.00944   0.00144   0.00124
  35        5ZZ        -0.00679   0.00609   0.00268   0.01864   0.00000
  36        5XY        -0.00000   0.00000   0.00000   0.00000  -0.01265
  37        5XZ        -0.00000  -0.00000   0.00000   0.00000   0.00120
  38        5YZ         0.00000  -0.00000  -0.00000   0.00000   0.00004
  39 3   H  1S         -0.00023  -0.00001   0.08612   0.11987  -0.00728
  40        2S          0.00200   0.00272   0.01731   0.04484  -0.00394
  41        3PX        -0.00001  -0.00000   0.00036   0.00040   0.00556
  42        3PY         0.00011   0.00014  -0.00812  -0.00923   0.00039
  43        3PZ        -0.00002   0.00001  -0.00396  -0.00138   0.00018
  44 4   H  1S         -0.00023  -0.00001   0.08612   0.11987   0.15898
  45        2S          0.00200   0.00272   0.01731   0.04484   0.11348
  46        3PX         0.00010   0.00012  -0.00721  -0.00819  -0.00148
  47        3PY        -0.00005  -0.00007   0.00374   0.00427   0.00368
  48        3PZ        -0.00002   0.00001  -0.00396  -0.00138  -0.00455
  49 5   H  1S         -0.00023  -0.00001   0.08612   0.11987  -0.15170
  50        2S          0.00200   0.00272   0.01731   0.04484  -0.10954
  51        3PX        -0.00009  -0.00012   0.00685   0.00779  -0.00081
  52        3PY        -0.00006  -0.00007   0.00437   0.00496  -0.00405
  53        3PZ        -0.00002   0.00001  -0.00396  -0.00138   0.00437
  54 6   H  1S         -0.00023   0.00001   0.08612  -0.11987   0.15170
  55        2S          0.00200  -0.00272   0.01731  -0.04484   0.10954
  56        3PX         0.00009  -0.00012  -0.00685   0.00779  -0.00081
  57        3PY        -0.00006   0.00007   0.00437  -0.00496   0.00405
  58        3PZ         0.00002   0.00001   0.00396  -0.00138   0.00437
  59 7   H  1S         -0.00023   0.00001   0.08612  -0.11987  -0.15898
  60        2S          0.00200  -0.00272   0.01731  -0.04484  -0.11348
  61        3PX        -0.00010   0.00012   0.00721  -0.00819  -0.00148
  62        3PY        -0.00005   0.00007   0.00374  -0.00427  -0.00368
  63        3PZ         0.00002   0.00001   0.00396  -0.00138  -0.00455
  64 8   H  1S         -0.00023   0.00001   0.08612  -0.11987   0.00728
  65        2S          0.00200  -0.00272   0.01731  -0.04484   0.00394
  66        3PX         0.00001  -0.00000  -0.00036   0.00040   0.00556
  67        3PY         0.00011  -0.00014  -0.00812   0.00923  -0.00039
  68        3PZ         0.00002   0.00001   0.00396  -0.00138   0.00018
                           6         7         8         9        10
                        (E)--O    (A1)--O   (E)--O    (E)--O    (A1)--V
     Eigenvalues --    -0.44300  -0.36392  -0.33897  -0.33897   0.01780
   1 1   C  1S          0.00000   0.01477   0.00000   0.00000   0.06078
   2        2S         -0.00000  -0.03882   0.00000   0.00000  -0.10686
   3        2PX        -0.00065   0.00000   0.31513  -0.00119  -0.00000
   4        2PY         0.31512   0.00000   0.00119   0.31513  -0.00000
   5        2PZ        -0.00000   0.41579  -0.00000   0.00000  -0.11218
   6        3S         -0.00000  -0.03338  -0.00000  -0.00000  -0.55082
   7        3PX         0.00091  -0.00000   0.15698  -0.00145  -0.00000
   8        3PY         0.13300   0.00000   0.00145   0.15698  -0.00000
   9        3PZ        -0.00000   0.18013  -0.00000   0.00000  -0.12671
  10        4S         -0.00000   0.02822  -0.00000   0.00000   0.85308
  11        4PX         0.00062  -0.00000   0.05713  -0.00041  -0.00000
  12        4PY         0.01543   0.00000   0.00041   0.05713  -0.00000
  13        4PZ         0.00000   0.03913   0.00000  -0.00000   0.11071
  14        5XX        -0.01096   0.01061   0.00182  -0.01192   0.01165
  15        5YY         0.01096   0.01061  -0.00182   0.01192   0.01165
  16        5ZZ         0.00000  -0.01506   0.00000   0.00000   0.00192
  17        5XY        -0.00144   0.00000  -0.01376  -0.00211   0.00000
  18        5XZ        -0.00004  -0.00000   0.01887   0.00000  -0.00000
  19        5YZ        -0.00120   0.00000  -0.00000   0.01887  -0.00000
  20 2   C  1S          0.00000   0.01477   0.00000  -0.00000   0.06078
  21        2S         -0.00000  -0.03882   0.00000  -0.00000  -0.10686
  22        2PX         0.00065  -0.00000  -0.31513  -0.00119   0.00000
  23        2PY         0.31512   0.00000   0.00119  -0.31513  -0.00000
  24        2PZ         0.00000  -0.41579   0.00000   0.00000   0.11218
  25        3S         -0.00000  -0.03338  -0.00000   0.00000  -0.55082
  26        3PX        -0.00091   0.00000  -0.15698  -0.00145   0.00000
  27        3PY         0.13300   0.00000   0.00145  -0.15698  -0.00000
  28        3PZ         0.00000  -0.18013   0.00000   0.00000   0.12671
  29        4S         -0.00000   0.02822  -0.00000  -0.00000   0.85308
  30        4PX        -0.00062   0.00000  -0.05713  -0.00041   0.00000
  31        4PY         0.01543   0.00000   0.00041  -0.05713  -0.00000
  32        4PZ        -0.00000  -0.03913  -0.00000  -0.00000  -0.11071
  33        5XX        -0.01096   0.01061   0.00182   0.01192   0.01165
  34        5YY         0.01096   0.01061  -0.00182  -0.01192   0.01165
  35        5ZZ         0.00000  -0.01506   0.00000  -0.00000   0.00192
  36        5XY         0.00144  -0.00000   0.01376  -0.00211  -0.00000
  37        5XZ        -0.00004  -0.00000   0.01887  -0.00000  -0.00000
  38        5YZ         0.00120  -0.00000   0.00000   0.01887   0.00000
  39 3   H  1S          0.17937   0.08364  -0.00922   0.21891   0.00870
  40        2S          0.12876   0.07336  -0.00964   0.19583  -0.05371
  41        3PX         0.00038   0.00017   0.00616   0.00040  -0.00048
  42        3PY        -0.00338  -0.00363   0.00040  -0.00413   0.01083
  43        3PZ        -0.00515   0.00659   0.00013  -0.00202   0.00005
  44 4   H  1S         -0.08338   0.08364   0.19419  -0.10147   0.00870
  45        2S         -0.06097   0.07336   0.17441  -0.08956  -0.05371
  46        3PX         0.00367  -0.00323  -0.00190   0.00426   0.00962
  47        3PY         0.00366   0.00167   0.00425   0.00394  -0.00500
  48        3PZ         0.00242   0.00659  -0.00181   0.00090   0.00005
  49 5   H  1S         -0.09599   0.08364  -0.18497  -0.11744   0.00870
  50        2S         -0.06779   0.07336  -0.16477  -0.10626  -0.05371
  51        3PX        -0.00407   0.00306  -0.00121  -0.00465  -0.00914
  52        3PY         0.00299   0.00196  -0.00466   0.00324  -0.00583
  53        3PZ         0.00273   0.00659   0.00168   0.00112   0.00005
  54 6   H  1S         -0.09599   0.08364  -0.18497   0.11744   0.00870
  55        2S         -0.06779   0.07336  -0.16477   0.10626  -0.05371
  56        3PX         0.00407  -0.00306   0.00121  -0.00465   0.00914
  57        3PY         0.00299   0.00196  -0.00466  -0.00324  -0.00583
  58        3PZ        -0.00273  -0.00659  -0.00168   0.00112  -0.00005
  59 7   H  1S         -0.08338   0.08364   0.19419   0.10147   0.00870
  60        2S         -0.06097   0.07336   0.17441   0.08956  -0.05371
  61        3PX        -0.00367   0.00323   0.00190   0.00426  -0.00962
  62        3PY         0.00366   0.00167   0.00425  -0.00394  -0.00500
  63        3PZ        -0.00242  -0.00659   0.00181   0.00090  -0.00005
  64 8   H  1S          0.17937   0.08364  -0.00922  -0.21891   0.00870
  65        2S          0.12876   0.07336  -0.00964  -0.19583  -0.05371
  66        3PX        -0.00038  -0.00017  -0.00616   0.00040   0.00048
  67        3PY        -0.00338  -0.00363   0.00040   0.00413   0.01083
  68        3PZ         0.00515  -0.00659  -0.00013  -0.00202  -0.00005
                          11        12        13        14        15
                        (A2)--V   (E)--V    (E)--V    (A1)--V   (E)--V
     Eigenvalues --     0.03290   0.05189   0.05189   0.07882   0.09106
   1 1   C  1S         -0.05215   0.00000   0.00000  -0.02964  -0.00000
   2        2S          0.11544  -0.00000  -0.00000   0.04312  -0.00000
   3        2PX        -0.00000  -0.00006  -0.16198  -0.00000  -0.13223
   4        2PY        -0.00000  -0.16198   0.00006  -0.00000  -0.00267
   5        2PZ         0.00637  -0.00000  -0.00000  -0.06309   0.00000
   6        3S          0.37433  -0.00000   0.00000   0.39393   0.00000
   7        3PX        -0.00000   0.00018  -0.23054  -0.00000  -0.11669
   8        3PY        -0.00000  -0.23054  -0.00018  -0.00000  -0.01038
   9        3PZ         0.02750   0.00000  -0.00000  -0.03283   0.00000
  10        4S          5.31336   0.00000   0.00000   0.16830   0.00000
  11        4PX        -0.00000   0.00008   0.61282   0.00000   1.99171
  12        4PY        -0.00000   0.61282  -0.00008  -0.00000  -0.00414
  13        4PZ        -2.31762  -0.00000  -0.00000   1.35118  -0.00000
  14        5XX         0.00143   0.00396  -0.00045  -0.01470  -0.00100
  15        5YY         0.00143  -0.00396   0.00045  -0.01470   0.00100
  16        5ZZ        -0.01552  -0.00000   0.00000   0.01340  -0.00000
  17        5XY        -0.00000   0.00052   0.00458   0.00000   0.00451
  18        5XZ        -0.00000   0.00000   0.00565  -0.00000  -0.00137
  19        5YZ        -0.00000   0.00565  -0.00000   0.00000   0.00016
  20 2   C  1S          0.05215   0.00000  -0.00000  -0.02964  -0.00000
  21        2S         -0.11544  -0.00000   0.00000   0.04312  -0.00000
  22        2PX        -0.00000   0.00006  -0.16198   0.00000   0.13223
  23        2PY         0.00000  -0.16198  -0.00006  -0.00000  -0.00267
  24        2PZ         0.00637   0.00000  -0.00000   0.06309  -0.00000
  25        3S         -0.37433  -0.00000  -0.00000   0.39393   0.00000
  26        3PX        -0.00000  -0.00018  -0.23054   0.00000   0.11669
  27        3PY         0.00000  -0.23054   0.00018  -0.00000  -0.01038
  28        3PZ         0.02750  -0.00000  -0.00000   0.03283  -0.00000
  29        4S         -5.31336   0.00000  -0.00000   0.16830   0.00000
  30        4PX        -0.00000  -0.00008   0.61282  -0.00000  -1.99171
  31        4PY         0.00000   0.61282   0.00008  -0.00000  -0.00414
  32        4PZ        -2.31762   0.00000  -0.00000  -1.35118   0.00000
  33        5XX        -0.00143   0.00396   0.00045  -0.01470  -0.00100
  34        5YY        -0.00143  -0.00396  -0.00045  -0.01470   0.00100
  35        5ZZ         0.01552  -0.00000  -0.00000   0.01340  -0.00000
  36        5XY        -0.00000  -0.00052   0.00458  -0.00000  -0.00451
  37        5XZ         0.00000   0.00000  -0.00565  -0.00000  -0.00137
  38        5YZ        -0.00000  -0.00565  -0.00000  -0.00000  -0.00016
  39 3   H  1S          0.00584  -0.00575   0.00018  -0.03219   0.00303
  40        2S         -0.02080  -0.01958   0.00121  -0.05521   0.02378
  41        3PX         0.00019  -0.00025   0.00210   0.00019   0.00158
  42        3PY        -0.00433   0.00736  -0.00026  -0.00475  -0.00021
  43        3PZ        -0.00660   0.00326  -0.00013   0.00543  -0.00036
  44 4   H  1S          0.00584   0.00272  -0.00507  -0.03219  -0.02572
  45        2S         -0.02080   0.00874  -0.01756  -0.05521  -0.16107
  46        3PX        -0.00385  -0.00214   0.00627  -0.00421   0.00579
  47        3PY         0.00200   0.00320  -0.00215   0.00221  -0.00243
  48        3PZ        -0.00660  -0.00152   0.00289   0.00543   0.00542
  49 5   H  1S          0.00584   0.00303   0.00489  -0.03219   0.02268
  50        2S         -0.02080   0.01084   0.01635  -0.05521   0.13729
  51        3PX         0.00366   0.00241   0.00583   0.00402   0.00560
  52        3PY         0.00233   0.00364   0.00240   0.00254   0.00233
  53        3PZ        -0.00660  -0.00175  -0.00276   0.00543  -0.00506
  54 6   H  1S         -0.00584   0.00303  -0.00489  -0.03219   0.02268
  55        2S          0.02080   0.01084  -0.01635  -0.05521   0.13729
  56        3PX         0.00366  -0.00241   0.00583  -0.00402  -0.00560
  57        3PY        -0.00233   0.00364  -0.00240   0.00254   0.00233
  58        3PZ        -0.00660   0.00175  -0.00276  -0.00543   0.00506
  59 7   H  1S         -0.00584   0.00272   0.00507  -0.03219  -0.02572
  60        2S          0.02080   0.00874   0.01756  -0.05521  -0.16107
  61        3PX        -0.00385   0.00214   0.00627   0.00421  -0.00579
  62        3PY        -0.00200   0.00320   0.00215   0.00221  -0.00243
  63        3PZ        -0.00660   0.00152   0.00289  -0.00543  -0.00542
  64 8   H  1S         -0.00584  -0.00575  -0.00018  -0.03219   0.00303
  65        2S          0.02080  -0.01958  -0.00121  -0.05521   0.02378
  66        3PX         0.00019   0.00025   0.00210  -0.00019  -0.00158
  67        3PY         0.00433   0.00736   0.00026  -0.00475  -0.00021
  68        3PZ        -0.00660  -0.00326  -0.00013  -0.00543   0.00036
                          16        17        18        19        20
                        (E)--V    (A2)--V   (E)--V    (E)--V    (A2)--V
     Eigenvalues --     0.09106   0.14221   0.14723   0.14723   0.26648
   1 1   C  1S         -0.00000   0.04134   0.00000  -0.00000   0.05695
   2        2S          0.00000  -0.10653  -0.00000  -0.00000  -0.06587
   3        2PX         0.00267  -0.00000   0.19176   0.01750   0.00000
   4        2PY        -0.13223  -0.00000   0.01750  -0.19176  -0.00000
   5        2PZ         0.00000  -0.08700  -0.00000   0.00000   0.36612
   6        3S          0.00000  -0.18396  -0.00000   0.00000  -1.10003
   7        3PX         0.01038  -0.00000   0.75167   0.09829   0.00000
   8        3PY        -0.11669  -0.00000   0.09829  -0.75167  -0.00000
   9        3PZ         0.00000  -0.39355  -0.00000  -0.00000   1.66008
  10        4S         -0.00000  27.87407   0.00000  -0.00000  11.59121
  11        4PX         0.00414  -0.00000   0.32524   0.01457   0.00000
  12        4PY         1.99171  -0.00000   0.01457  -0.32524  -0.00000
  13        4PZ         0.00000  -8.45975  -0.00000  -0.00000  -3.62796
  14        5XX         0.00390   0.00774  -0.00144  -0.02215  -0.01346
  15        5YY        -0.00390   0.00774   0.00144   0.02215  -0.01346
  16        5ZZ        -0.00000   0.00416   0.00000   0.00000   0.03202
  17        5XY         0.00116  -0.00000   0.02558  -0.00166  -0.00000
  18        5XZ        -0.00016   0.00000  -0.01687   0.00076  -0.00000
  19        5YZ        -0.00137  -0.00000   0.00076   0.01687  -0.00000
  20 2   C  1S          0.00000  -0.04134  -0.00000  -0.00000  -0.05695
  21        2S         -0.00000   0.10653   0.00000  -0.00000   0.06587
  22        2PX         0.00267  -0.00000   0.19176  -0.01750   0.00000
  23        2PY         0.13223   0.00000  -0.01750  -0.19176   0.00000
  24        2PZ         0.00000  -0.08700  -0.00000  -0.00000   0.36612
  25        3S         -0.00000   0.18396   0.00000   0.00000   1.10003
  26        3PX         0.01038  -0.00000   0.75167  -0.09829   0.00000
  27        3PY         0.11669   0.00000  -0.09829  -0.75167   0.00000
  28        3PZ         0.00000  -0.39355  -0.00000   0.00000   1.66008
  29        4S          0.00000 -27.87407  -0.00000  -0.00000 -11.59121
  30        4PX         0.00414  -0.00000   0.32524  -0.01457   0.00000
  31        4PY        -1.99171   0.00000  -0.01457  -0.32524   0.00000
  32        4PZ         0.00000  -8.45975  -0.00000   0.00000  -3.62796
  33        5XX        -0.00390  -0.00774   0.00144  -0.02215   0.01346
  34        5YY         0.00390  -0.00774  -0.00144   0.02215   0.01346
  35        5ZZ         0.00000  -0.00416  -0.00000   0.00000  -0.03202
  36        5XY         0.00116  -0.00000   0.02558   0.00166  -0.00000
  37        5XZ         0.00016  -0.00000   0.01687   0.00076   0.00000
  38        5YZ        -0.00137  -0.00000   0.00076  -0.01687  -0.00000
  39 3   H  1S         -0.02794   0.03673   0.00103   0.13554  -0.05513
  40        2S         -0.17226  -0.13835  -0.04355   1.23978  -0.47023
  41        3PX        -0.00001  -0.00042   0.01261   0.00042   0.00026
  42        3PY         0.00707   0.01019   0.00049  -0.00064  -0.00290
  43        3PZ         0.00605   0.00256   0.00098   0.00041   0.01190
  44 4   H  1S          0.01135   0.03673  -0.11789  -0.06688  -0.05513
  45        2S          0.06554  -0.13835  -1.05191  -0.65760  -0.47023
  46        3PX        -0.00222   0.00904   0.00361  -0.00471  -0.00264
  47        3PY         0.00286  -0.00473   0.00562  -0.00965   0.00122
  48        3PZ        -0.00272   0.00256  -0.00085   0.00065   0.01190
  49 5   H  1S          0.01660   0.03673   0.11686  -0.06866  -0.05513
  50        2S          0.10672  -0.13835   1.09546  -0.58218  -0.47023
  51        3PX         0.00254  -0.00862   0.00367   0.00565   0.00238
  52        3PY         0.00304  -0.00546  -0.00474  -0.00959   0.00168
  53        3PZ        -0.00333   0.00256  -0.00014  -0.00106   0.01190
  54 6   H  1S         -0.01660  -0.03673  -0.11686  -0.06866   0.05513
  55        2S         -0.10672   0.13835  -1.09546  -0.58218   0.47023
  56        3PX         0.00254  -0.00862   0.00367  -0.00565   0.00238
  57        3PY        -0.00304   0.00546   0.00474  -0.00959  -0.00168
  58        3PZ        -0.00333   0.00256  -0.00014   0.00106   0.01190
  59 7   H  1S         -0.01135  -0.03673   0.11789  -0.06688   0.05513
  60        2S         -0.06554   0.13835   1.05191  -0.65760   0.47023
  61        3PX        -0.00222   0.00904   0.00361   0.00471  -0.00264
  62        3PY        -0.00286   0.00473  -0.00562  -0.00965  -0.00122
  63        3PZ        -0.00272   0.00256  -0.00085  -0.00065   0.01190
  64 8   H  1S          0.02794  -0.03673  -0.00103   0.13554   0.05513
  65        2S          0.17226   0.13835   0.04355   1.23978   0.47023
  66        3PX        -0.00001  -0.00042   0.01261  -0.00042   0.00026
  67        3PY        -0.00707  -0.01019  -0.00049  -0.00064   0.00290
  68        3PZ         0.00605   0.00256   0.00098  -0.00041   0.01190
                          21        22        23        24        25
                        (E)--V    (E)--V    (A1)--V   (A2)--V   (A1)--V
     Eigenvalues --     0.26740   0.26740   0.27880   0.34997   0.60680
   1 1   C  1S         -0.00000  -0.00000  -0.08200  -0.13100   0.02055
   2        2S          0.00000   0.00000   0.13101   0.13514  -0.00147
   3        2PX         0.28640   0.02055  -0.00000  -0.00000  -0.00000
   4        2PY         0.02055  -0.28640  -0.00000   0.00000  -0.00000
   5        2PZ         0.00000  -0.00000   0.11998   0.01174  -0.62359
   6        3S          0.00000   0.00000   1.64427   2.99202   0.33734
   7        3PX         1.40113   0.06133  -0.00000  -0.00000   0.00000
   8        3PY         0.06133  -1.40113  -0.00000   0.00000   0.00000
   9        3PZ         0.00000  -0.00000   0.65345  -0.49656   1.05864
  10        4S          0.00000  -0.00000   1.15863  21.63558  -0.17851
  11        4PX         0.88376   0.03192  -0.00000  -0.00000  -0.00000
  12        4PY         0.03192  -0.88376  -0.00000   0.00000  -0.00000
  13        4PZ        -0.00000   0.00000  -0.56451  -5.79656  -0.69931
  14        5XX        -0.00088  -0.01154  -0.00751  -0.00738  -0.02790
  15        5YY         0.00088   0.01154  -0.00751  -0.00738  -0.02790
  16        5ZZ         0.00000  -0.00000   0.01104  -0.00748   0.10976
  17        5XY         0.01333  -0.00102  -0.00000   0.00000  -0.00000
  18        5XZ         0.00748  -0.00334  -0.00000   0.00000   0.00000
  19        5YZ        -0.00334  -0.00748   0.00000   0.00000   0.00000
  20 2   C  1S         -0.00000   0.00000  -0.08200   0.13100   0.02055
  21        2S          0.00000  -0.00000   0.13101  -0.13514  -0.00147
  22        2PX        -0.28640   0.02055   0.00000  -0.00000   0.00000
  23        2PY         0.02055   0.28640  -0.00000  -0.00000  -0.00000
  24        2PZ        -0.00000  -0.00000  -0.11998   0.01174   0.62359
  25        3S          0.00000  -0.00000   1.64427  -2.99202   0.33734
  26        3PX        -1.40113   0.06133   0.00000  -0.00000  -0.00000
  27        3PY         0.06133   1.40113  -0.00000  -0.00000   0.00000
  28        3PZ        -0.00000  -0.00000  -0.65345  -0.49656  -1.05864
  29        4S          0.00000   0.00000   1.15863 -21.63558  -0.17851
  30        4PX        -0.88376   0.03192   0.00000  -0.00000   0.00000
  31        4PY         0.03192   0.88376  -0.00000  -0.00000  -0.00000
  32        4PZ         0.00000   0.00000   0.56451  -5.79656   0.69931
  33        5XX        -0.00088   0.01154  -0.00751   0.00738  -0.02790
  34        5YY         0.00088  -0.01154  -0.00751   0.00738  -0.02790
  35        5ZZ         0.00000   0.00000   0.01104   0.00748   0.10976
  36        5XY        -0.01333  -0.00102   0.00000   0.00000   0.00000
  37        5XZ         0.00748   0.00334  -0.00000  -0.00000   0.00000
  38        5YZ         0.00334  -0.00748  -0.00000   0.00000  -0.00000
  39 3   H  1S         -0.01020   0.09812  -0.06440  -0.06418  -0.10327
  40        2S         -0.03932   1.66630  -1.35060  -1.52765  -0.02396
  41        3PX         0.01367  -0.00015  -0.00026   0.00072  -0.00053
  42        3PY         0.00057   0.00121  -0.00307  -0.00463   0.01117
  43        3PZ        -0.00174  -0.00056   0.00444  -0.00075   0.02547
  44 4   H  1S         -0.07987  -0.05790  -0.06440  -0.06418  -0.10327
  45        2S         -1.42340  -0.86720  -1.35060  -1.52765  -0.02396
  46        3PX         0.00220  -0.00606  -0.00252  -0.00436   0.00994
  47        3PY         0.00647  -0.01026   0.00176   0.00169  -0.00513
  48        3PZ         0.00135  -0.00123   0.00444  -0.00075   0.02547
  49 5   H  1S          0.09008  -0.04022  -0.06440  -0.06418  -0.10327
  50        2S          1.46272  -0.79910  -1.35060  -1.52765  -0.02396
  51        3PX         0.00282   0.00683   0.00279   0.00365  -0.00941
  52        3PY        -0.00642  -0.00964   0.00131   0.00293  -0.00605
  53        3PZ         0.00039   0.00178   0.00444  -0.00075   0.02547
  54 6   H  1S          0.09008   0.04022  -0.06440   0.06418  -0.10327
  55        2S          1.46272   0.79910  -1.35060   1.52765  -0.02396
  56        3PX        -0.00282   0.00683  -0.00279   0.00365   0.00941
  57        3PY        -0.00642   0.00964   0.00131  -0.00293  -0.00605
  58        3PZ        -0.00039   0.00178  -0.00444  -0.00075  -0.02547
  59 7   H  1S         -0.07987   0.05790  -0.06440   0.06418  -0.10327
  60        2S         -1.42340   0.86720  -1.35060   1.52765  -0.02396
  61        3PX        -0.00220  -0.00606   0.00252  -0.00436  -0.00994
  62        3PY         0.00647   0.01026   0.00176  -0.00169  -0.00513
  63        3PZ        -0.00135  -0.00123  -0.00444  -0.00075  -0.02547
  64 8   H  1S         -0.01020  -0.09812  -0.06440   0.06418  -0.10327
  65        2S         -0.03932  -1.66630  -1.35060   1.52765  -0.02396
  66        3PX        -0.01367  -0.00015   0.00026   0.00072   0.00053
  67        3PY         0.00057  -0.00121  -0.00307   0.00463   0.01117
  68        3PZ         0.00174  -0.00056  -0.00444  -0.00075  -0.02547
                          26        27        28        29        30
                        (E)--V    (E)--V    (E)--V    (E)--V    (A2)--V
     Eigenvalues --     0.64675   0.64675   0.70104   0.70104   0.71435
   1 1   C  1S          0.00000  -0.00000   0.00000  -0.00000  -0.02890
   2        2S         -0.00000   0.00000  -0.00000  -0.00000   0.20673
   3        2PX        -0.65918   0.02774   0.00551  -0.69098   0.00000
   4        2PY        -0.02774  -0.65918  -0.69098  -0.00551  -0.00000
   5        2PZ        -0.00000   0.00000   0.00000   0.00000  -0.82275
   6        3S          0.00000  -0.00000   0.00000   0.00000  -1.14144
   7        3PX         0.95109  -0.05841  -0.02394   2.01749  -0.00000
   8        3PY         0.05841   0.95109   2.01749   0.02394   0.00000
   9        3PZ         0.00000  -0.00000  -0.00000  -0.00000   2.01430
  10        4S         -0.00000   0.00000   0.00000  -0.00000   2.28227
  11        4PX        -0.31157   0.02389   0.01143  -0.55418   0.00000
  12        4PY        -0.02389  -0.31157  -0.55418  -0.01143  -0.00000
  13        4PZ         0.00000   0.00000  -0.00000   0.00000  -0.90416
  14        5XX        -0.00367   0.03106   0.02584  -0.00036   0.03060
  15        5YY         0.00367  -0.03106  -0.02584   0.00036   0.03060
  16        5ZZ        -0.00000  -0.00000   0.00000  -0.00000  -0.08940
  17        5XY         0.03587   0.00424   0.00042   0.02984   0.00000
  18        5XZ        -0.01440  -0.00082   0.00960   0.02090   0.00000
  19        5YZ         0.00082  -0.01440   0.02090  -0.00960   0.00000
  20 2   C  1S         -0.00000  -0.00000  -0.00000  -0.00000   0.02890
  21        2S          0.00000   0.00000   0.00000  -0.00000  -0.20673
  22        2PX        -0.65918  -0.02774   0.00551   0.69098   0.00000
  23        2PY         0.02774  -0.65918   0.69098  -0.00551   0.00000
  24        2PZ        -0.00000  -0.00000   0.00000  -0.00000  -0.82275
  25        3S         -0.00000  -0.00000  -0.00000   0.00000   1.14144
  26        3PX         0.95109   0.05841  -0.02394  -2.01749  -0.00000
  27        3PY        -0.05841   0.95109  -2.01749   0.02394  -0.00000
  28        3PZ         0.00000   0.00000  -0.00000   0.00000   2.01430
  29        4S          0.00000   0.00000  -0.00000  -0.00000  -2.28227
  30        4PX        -0.31157  -0.02389   0.01143   0.55418   0.00000
  31        4PY         0.02389  -0.31157   0.55418  -0.01143   0.00000
  32        4PZ         0.00000  -0.00000  -0.00000  -0.00000  -0.90416
  33        5XX         0.00367   0.03106  -0.02584  -0.00036  -0.03060
  34        5YY        -0.00367  -0.03106   0.02584   0.00036  -0.03060
  35        5ZZ         0.00000  -0.00000  -0.00000  -0.00000   0.08940
  36        5XY         0.03587  -0.00424   0.00042  -0.02984   0.00000
  37        5XZ         0.01440  -0.00082  -0.00960   0.02090  -0.00000
  38        5YZ         0.00082   0.01440   0.02090   0.00960   0.00000
  39 3   H  1S          0.01006  -0.22846  -0.16458  -0.02813  -0.07829
  40        2S         -0.01429  -0.03682  -0.69302   0.05024  -0.24702
  41        3PX         0.01283  -0.00160  -0.00158   0.03020  -0.00032
  42        3PY         0.00051   0.04781   0.04723  -0.00073   0.01161
  43        3PZ         0.00224  -0.00613   0.04720  -0.00619  -0.01812
  44 4   H  1S         -0.20288   0.10551   0.10665  -0.12846  -0.07829
  45        2S         -0.02474   0.03079   0.30300  -0.62530  -0.24702
  46        3PX         0.03953  -0.01593  -0.00722   0.04397   0.01021
  47        3PY        -0.01382   0.02111   0.03345  -0.00637  -0.00552
  48        3PZ        -0.00643   0.00112  -0.01824   0.04397  -0.01812
  49 5   H  1S          0.19282   0.12294   0.05793   0.15659  -0.07829
  50        2S          0.03903   0.00603   0.39002   0.57505  -0.24702
  51        3PX         0.03859   0.01436   0.00752   0.04197  -0.00989
  52        3PY         0.01647   0.02204   0.03546   0.00838  -0.00608
  53        3PZ         0.00419   0.00501  -0.02896  -0.03778  -0.01812
  54 6   H  1S         -0.19282   0.12294  -0.05793   0.15659   0.07829
  55        2S         -0.03903   0.00603  -0.39002   0.57505   0.24702
  56        3PX         0.03859  -0.01436   0.00752  -0.04197  -0.00989
  57        3PY        -0.01647   0.02204  -0.03546   0.00838   0.00608
  58        3PZ         0.00419  -0.00501  -0.02896   0.03778  -0.01812
  59 7   H  1S          0.20288   0.10551  -0.10665  -0.12846   0.07829
  60        2S          0.02474   0.03079  -0.30300  -0.62530   0.24702
  61        3PX         0.03953   0.01593  -0.00722  -0.04397   0.01021
  62        3PY         0.01382   0.02111  -0.03345  -0.00637   0.00552
  63        3PZ        -0.00643  -0.00112  -0.01824  -0.04397  -0.01812
  64 8   H  1S         -0.01006  -0.22846   0.16458  -0.02813   0.07829
  65        2S          0.01429  -0.03682   0.69302   0.05024   0.24702
  66        3PX         0.01283   0.00160  -0.00158  -0.03020  -0.00032
  67        3PY        -0.00051   0.04781  -0.04723  -0.00073  -0.01161
  68        3PZ         0.00224   0.00613   0.04720   0.00619  -0.01812
                          31        32        33        34        35
                        (E)--V    (E)--V    (E)--V    (E)--V    (A1)--V
     Eigenvalues --     0.86320   0.86320   0.97612   0.97612   1.00950
   1 1   C  1S          0.00000  -0.00000  -0.00000   0.00000  -0.06801
   2        2S          0.00000  -0.00000  -0.00000  -0.00000  -0.63185
   3        2PX         0.39494   0.02014  -0.34886  -0.02069   0.00000
   4        2PY        -0.02014   0.39494  -0.02069   0.34886  -0.00000
   5        2PZ         0.00000  -0.00000   0.00000  -0.00000   0.26362
   6        3S         -0.00000   0.00000   0.00000   0.00000   1.03398
   7        3PX        -0.69787  -0.11921   0.68444   0.04973  -0.00000
   8        3PY         0.11921  -0.69787   0.04973  -0.68444   0.00000
   9        3PZ         0.00000   0.00000   0.00000   0.00000  -0.09175
  10        4S         -0.00000   0.00000   0.00000  -0.00000  -0.45519
  11        4PX        -0.20759   0.02154   0.80661   0.01269  -0.00000
  12        4PY        -0.02154  -0.20759   0.01269  -0.80661   0.00000
  13        4PZ         0.00000  -0.00000   0.00000   0.00000   0.14354
  14        5XX        -0.00630   0.09917   0.01773   0.17320  -0.09187
  15        5YY         0.00630  -0.09917  -0.01773  -0.17320  -0.09187
  16        5ZZ        -0.00000   0.00000  -0.00000  -0.00000  -0.03541
  17        5XY         0.11451   0.00727  -0.19999   0.02047   0.00000
  18        5XZ        -0.19717   0.00037   0.04839   0.00269  -0.00000
  19        5YZ        -0.00037  -0.19717   0.00269  -0.04839   0.00000
  20 2   C  1S         -0.00000  -0.00000  -0.00000  -0.00000  -0.06801
  21        2S         -0.00000  -0.00000  -0.00000   0.00000  -0.63185
  22        2PX         0.39494  -0.02014   0.34886  -0.02069  -0.00000
  23        2PY         0.02014   0.39494  -0.02069  -0.34886  -0.00000
  24        2PZ         0.00000   0.00000  -0.00000  -0.00000  -0.26362
  25        3S          0.00000   0.00000   0.00000  -0.00000   1.03398
  26        3PX        -0.69787   0.11921  -0.68444   0.04973   0.00000
  27        3PY        -0.11921  -0.69787   0.04973   0.68444   0.00000
  28        3PZ         0.00000  -0.00000  -0.00000   0.00000   0.09175
  29        4S          0.00000   0.00000   0.00000   0.00000  -0.45519
  30        4PX        -0.20759  -0.02154  -0.80661   0.01269   0.00000
  31        4PY         0.02154  -0.20759   0.01269   0.80661   0.00000
  32        4PZ         0.00000   0.00000  -0.00000   0.00000  -0.14354
  33        5XX         0.00630   0.09917   0.01773  -0.17320  -0.09187
  34        5YY        -0.00630  -0.09917  -0.01773   0.17320  -0.09187
  35        5ZZ         0.00000   0.00000  -0.00000   0.00000  -0.03541
  36        5XY         0.11451  -0.00727   0.19999   0.02047  -0.00000
  37        5XZ         0.19717   0.00037   0.04839  -0.00269  -0.00000
  38        5YZ        -0.00037   0.19717  -0.00269  -0.04839  -0.00000
  39 3   H  1S         -0.00406  -0.59994  -0.00790  -0.66555  -0.49515
  40        2S         -0.09631   1.29257  -0.01380   1.47413   0.28636
  41        3PX         0.00847  -0.00214  -0.07027   0.00249   0.00154
  42        3PY         0.00308  -0.04286  -0.00231  -0.04517  -0.03156
  43        3PZ         0.00194  -0.05288  -0.00267  -0.01033  -0.01121
  44 4   H  1S         -0.51753   0.30348   0.58033   0.32593  -0.49515
  45        2S          1.16755  -0.56288  -1.26973  -0.74902   0.28636
  46        3PX        -0.03044   0.01938   0.01839   0.04888  -0.02810
  47        3PY         0.02460  -0.00396  -0.04869   0.04349   0.01445
  48        3PZ        -0.04676   0.02476   0.01028   0.00286  -0.01121
  49 5   H  1S          0.52159   0.29646  -0.57243   0.33962  -0.49515
  50        2S         -1.07124  -0.72969   1.28353  -0.72511   0.28636
  51        3PX        -0.02962  -0.02507   0.01423  -0.05109   0.02656
  52        3PY        -0.01985  -0.00477   0.05128   0.03933   0.01711
  53        3PZ         0.04482   0.02812  -0.00761   0.00748  -0.01121
  54 6   H  1S         -0.52159   0.29646  -0.57243  -0.33962  -0.49515
  55        2S          1.07124  -0.72969   1.28353   0.72511   0.28636
  56        3PX        -0.02962   0.02507  -0.01423  -0.05109  -0.02656
  57        3PY         0.01985  -0.00477   0.05128  -0.03933   0.01711
  58        3PZ         0.04482  -0.02812   0.00761   0.00748   0.01121
  59 7   H  1S          0.51753   0.30348   0.58033  -0.32593  -0.49515
  60        2S         -1.16755  -0.56288  -1.26973   0.74902   0.28636
  61        3PX        -0.03044  -0.01938  -0.01839   0.04888   0.02810
  62        3PY        -0.02460  -0.00396  -0.04869  -0.04349   0.01445
  63        3PZ        -0.04676  -0.02476  -0.01028   0.00286   0.01121
  64 8   H  1S          0.00406  -0.59994  -0.00790   0.66555  -0.49515
  65        2S          0.09631   1.29257  -0.01380  -1.47413   0.28636
  66        3PX         0.00847   0.00214   0.07027   0.00249  -0.00154
  67        3PY        -0.00308  -0.04286  -0.00231   0.04517  -0.03156
  68        3PZ         0.00194   0.05288   0.00267  -0.01033   0.01121
                          36        37        38        39        40
                        (A1)--V   (A2)--V   (E)--V    (E)--V    (A2)--V
     Eigenvalues --     1.06196   1.12469   1.30057   1.30057   1.51076
   1 1   C  1S         -0.02441   0.02343   0.00000   0.00000  -0.13736
   2        2S         -1.35157  -0.96991   0.00000  -0.00000  -1.74274
   3        2PX         0.00000   0.00000   0.08650  -0.00855   0.00000
   4        2PY        -0.00000  -0.00000   0.00855   0.08650   0.00000
   5        2PZ        -0.17534  -0.15972   0.00000  -0.00000  -0.00260
   6        3S          3.27869   3.21800  -0.00000   0.00000   6.70789
   7        3PX        -0.00000  -0.00000  -0.12041   0.03801  -0.00000
   8        3PY         0.00000   0.00000  -0.03801  -0.12041  -0.00000
   9        3PZ         0.67253   0.29611   0.00000   0.00000  -1.75538
  10        4S          0.55300  13.24547  -0.00000   0.00000  -1.51284
  11        4PX        -0.00000  -0.00000  -0.08457   0.01411  -0.00000
  12        4PY         0.00000   0.00000  -0.01411  -0.08457  -0.00000
  13        4PZ        -0.11234  -3.51493   0.00000  -0.00000   0.59516
  14        5XX         0.02652   0.04291  -0.02814   0.28016  -0.07134
  15        5YY         0.02652   0.04291   0.02814  -0.28016  -0.07134
  16        5ZZ        -0.18199  -0.05121  -0.00000   0.00000  -0.00509
  17        5XY         0.00000  -0.00000   0.32350   0.03250  -0.00000
  18        5XZ        -0.00000   0.00000   0.38334   0.00103   0.00000
  19        5YZ         0.00000   0.00000  -0.00103   0.38334  -0.00000
  20 2   C  1S         -0.02441  -0.02343  -0.00000   0.00000   0.13736
  21        2S         -1.35157   0.96991  -0.00000  -0.00000   1.74274
  22        2PX        -0.00000   0.00000   0.08650   0.00855   0.00000
  23        2PY        -0.00000   0.00000  -0.00855   0.08650  -0.00000
  24        2PZ         0.17534  -0.15972   0.00000   0.00000  -0.00260
  25        3S          3.27869  -3.21800   0.00000   0.00000  -6.70789
  26        3PX         0.00000  -0.00000  -0.12041  -0.03801  -0.00000
  27        3PY         0.00000  -0.00000   0.03801  -0.12041   0.00000
  28        3PZ        -0.67253   0.29611   0.00000  -0.00000  -1.75538
  29        4S          0.55300 -13.24547   0.00000   0.00000   1.51284
  30        4PX         0.00000  -0.00000  -0.08457  -0.01411  -0.00000
  31        4PY         0.00000  -0.00000   0.01411  -0.08457   0.00000
  32        4PZ         0.11234  -3.51493   0.00000   0.00000   0.59516
  33        5XX         0.02652  -0.04291   0.02814   0.28016   0.07134
  34        5YY         0.02652  -0.04291  -0.02814  -0.28016   0.07134
  35        5ZZ        -0.18199   0.05121   0.00000   0.00000   0.00509
  36        5XY        -0.00000  -0.00000   0.32350  -0.03250  -0.00000
  37        5XZ        -0.00000  -0.00000  -0.38334   0.00103  -0.00000
  38        5YZ        -0.00000   0.00000  -0.00103  -0.38334  -0.00000
  39 3   H  1S          0.21264   0.46593   0.00161  -0.11910  -0.42538
  40        2S         -1.36069  -1.66641   0.02452   0.30077  -0.64727
  41        3PX        -0.00356  -0.00023   0.16987   0.01088   0.00236
  42        3PY         0.04348   0.05646   0.00967  -0.05899   0.00077
  43        3PZ        -0.01157   0.00865  -0.00588   0.15007  -0.01218
  44 4   H  1S          0.21264   0.46593  -0.10394   0.05816  -0.42538
  45        2S         -1.36069  -1.66641   0.24821  -0.17162  -0.64727
  46        3PX         0.03944   0.04901  -0.01067   0.09457  -0.00051
  47        3PY        -0.01866  -0.02803   0.09336   0.12156  -0.00243
  48        3PZ        -0.01157   0.00865   0.13290  -0.06994  -0.01218
  49 5   H  1S          0.21264   0.46593   0.10234   0.06094  -0.42538
  50        2S         -1.36069  -1.66641  -0.27273  -0.12915  -0.64727
  51        3PX        -0.03588  -0.04878   0.00712  -0.10363  -0.00185
  52        3PY        -0.02482  -0.02843  -0.10484   0.10376   0.00166
  53        3PZ        -0.01157   0.00865  -0.12702  -0.08012  -0.01218
  54 6   H  1S          0.21264  -0.46593  -0.10234   0.06094   0.42538
  55        2S         -1.36069   1.66641   0.27273  -0.12915   0.64727
  56        3PX         0.03588  -0.04878   0.00712   0.10363  -0.00185
  57        3PY        -0.02482   0.02843   0.10484   0.10376  -0.00166
  58        3PZ         0.01157   0.00865  -0.12702   0.08012  -0.01218
  59 7   H  1S          0.21264  -0.46593   0.10394   0.05816   0.42538
  60        2S         -1.36069   1.66641  -0.24821  -0.17162   0.64727
  61        3PX        -0.03944   0.04901  -0.01067  -0.09457  -0.00051
  62        3PY        -0.01866   0.02803  -0.09336   0.12156   0.00243
  63        3PZ         0.01157   0.00865   0.13290   0.06994  -0.01218
  64 8   H  1S          0.21264  -0.46593  -0.00161  -0.11910   0.42538
  65        2S         -1.36069   1.66641  -0.02452   0.30077   0.64727
  66        3PX         0.00356  -0.00023   0.16987  -0.01088   0.00236
  67        3PY         0.04348  -0.05646  -0.00967  -0.05899  -0.00077
  68        3PZ         0.01157   0.00865  -0.00588  -0.15007  -0.01218
                          41        42        43        44        45
                        (E)--V    (E)--V    (A1)--V   (E)--V    (E)--V
     Eigenvalues --     1.71687   1.71687   1.94350   2.01968   2.01968
   1 1   C  1S          0.00000   0.00000   0.01835  -0.00000  -0.00000
   2        2S          0.00000   0.00000  -0.47426  -0.00000   0.00000
   3        2PX        -0.06195  -0.00192   0.00000  -0.01031  -0.07621
   4        2PY         0.00192  -0.06195  -0.00000   0.07621  -0.01031
   5        2PZ         0.00000  -0.00000   0.34509   0.00000   0.00000
   6        3S         -0.00000  -0.00000   0.31338   0.00000  -0.00000
   7        3PX         0.57230   0.00975  -0.00000   0.05910   0.28789
   8        3PY        -0.00975   0.57230   0.00000  -0.28789   0.05910
   9        3PZ        -0.00000   0.00000  -0.47645   0.00000   0.00000
  10        4S         -0.00000  -0.00000   0.15122   0.00000  -0.00000
  11        4PX        -0.06015   0.00003  -0.00000  -0.01461  -0.10394
  12        4PY        -0.00003  -0.06015   0.00000   0.10394  -0.01461
  13        4PZ         0.00000   0.00000   0.18791   0.00000   0.00000
  14        5XX         0.02813  -0.15556  -0.24892   0.33782   0.01432
  15        5YY        -0.02813   0.15556  -0.24892  -0.33782  -0.01432
  16        5ZZ         0.00000   0.00000   0.61424   0.00000  -0.00000
  17        5XY        -0.17963  -0.03248  -0.00000   0.01653  -0.39008
  18        5XZ        -0.40465   0.00823   0.00000   0.01800   0.38201
  19        5YZ        -0.00823  -0.40465   0.00000  -0.38201   0.01800
  20 2   C  1S          0.00000  -0.00000   0.01835  -0.00000   0.00000
  21        2S          0.00000  -0.00000  -0.47426  -0.00000  -0.00000
  22        2PX         0.06195  -0.00192  -0.00000   0.01031  -0.07621
  23        2PY         0.00192   0.06195  -0.00000   0.07621   0.01031
  24        2PZ        -0.00000  -0.00000  -0.34509  -0.00000   0.00000
  25        3S         -0.00000   0.00000   0.31338   0.00000   0.00000
  26        3PX        -0.57230   0.00975   0.00000  -0.05910   0.28789
  27        3PY        -0.00975  -0.57230   0.00000  -0.28789  -0.05910
  28        3PZ         0.00000   0.00000   0.47645  -0.00000   0.00000
  29        4S         -0.00000   0.00000   0.15122   0.00000   0.00000
  30        4PX         0.06015   0.00003   0.00000   0.01461  -0.10394
  31        4PY        -0.00003   0.06015   0.00000   0.10394   0.01461
  32        4PZ        -0.00000   0.00000  -0.18791  -0.00000   0.00000
  33        5XX         0.02813   0.15556  -0.24892   0.33782  -0.01432
  34        5YY        -0.02813  -0.15556  -0.24892  -0.33782   0.01432
  35        5ZZ         0.00000  -0.00000   0.61424   0.00000   0.00000
  36        5XY         0.17963  -0.03248   0.00000  -0.01653  -0.39008
  37        5XZ        -0.40465  -0.00823   0.00000   0.01800  -0.38201
  38        5YZ         0.00823  -0.40465  -0.00000   0.38201   0.01800
  39 3   H  1S          0.01134  -0.11308   0.18804   0.46832  -0.01384
  40        2S          0.01276  -0.15661  -0.20165  -0.20771  -0.01447
  41        3PX        -0.06565  -0.00622  -0.00599  -0.01041  -0.10006
  42        3PY        -0.00646   0.13348   0.04580   0.20914  -0.01328
  43        3PZ         0.01540  -0.35149   0.12321   0.10150   0.01304
  44 4   H  1S         -0.10360   0.04672   0.18804  -0.24614  -0.39865
  45        2S         -0.14201   0.06726  -0.20165   0.09133   0.18711
  46        3PX         0.08919  -0.08293   0.04266  -0.05979  -0.18063
  47        3PY        -0.08318  -0.02136  -0.01772   0.12857   0.03610
  48        3PZ        -0.31210   0.16241   0.12321  -0.03945  -0.09442
  49 5   H  1S          0.09226   0.06636   0.18804  -0.22217   0.41249
  50        2S          0.12925   0.08935  -0.20165   0.11638  -0.17265
  51        3PX         0.07821   0.08952  -0.03667   0.03467  -0.18311
  52        3PY         0.08927  -0.01038  -0.02808   0.12609  -0.05836
  53        3PZ         0.29670   0.18908   0.12321  -0.06205   0.08138
  54 6   H  1S          0.09226  -0.06636   0.18804  -0.22217  -0.41249
  55        2S          0.12925  -0.08935  -0.20165   0.11638   0.17265
  56        3PX        -0.07821   0.08952   0.03667  -0.03467  -0.18311
  57        3PY         0.08927   0.01038  -0.02808   0.12609   0.05836
  58        3PZ        -0.29670   0.18908  -0.12321   0.06205   0.08138
  59 7   H  1S         -0.10360  -0.04672   0.18804  -0.24614   0.39865
  60        2S         -0.14201  -0.06726  -0.20165   0.09133  -0.18711
  61        3PX        -0.08919  -0.08293  -0.04266   0.05979  -0.18063
  62        3PY        -0.08318   0.02136  -0.01772   0.12857  -0.03610
  63        3PZ         0.31210   0.16241  -0.12321   0.03945  -0.09442
  64 8   H  1S          0.01134   0.11308   0.18804   0.46832   0.01384
  65        2S          0.01276   0.15661  -0.20165  -0.20771   0.01447
  66        3PX         0.06565  -0.00622   0.00599   0.01041  -0.10006
  67        3PY        -0.00646  -0.13348   0.04580   0.20914   0.01328
  68        3PZ        -0.01540  -0.35149  -0.12321  -0.10150   0.01304
                          46        47        48        49        50
                        (A2)--V   (A1)--V   (E)--V    (E)--V    (E)--V
     Eigenvalues --     2.04156   2.04257   2.14011   2.14011   2.24935
   1 1   C  1S          0.00034   0.00017  -0.00000  -0.00000  -0.00000
   2        2S          0.02314  -0.01608   0.00000   0.00000   0.00000
   3        2PX        -0.00000  -0.00000   0.00988  -0.14403  -0.00370
   4        2PY        -0.00000   0.00000  -0.14403  -0.00988  -0.06535
   5        2PZ         0.00143   0.00174  -0.00000  -0.00000   0.00000
   6        3S         -0.07049   0.02958  -0.00000  -0.00000  -0.00000
   7        3PX         0.00000   0.00000  -0.02487   0.87178  -0.01423
   8        3PY         0.00000  -0.00000   0.87178   0.02487   0.29643
   9        3PZ         0.00134   0.00192  -0.00000   0.00000  -0.00000
  10        4S         -0.22952   0.01036  -0.00000  -0.00000  -0.00000
  11        4PX        -0.00000  -0.00000   0.00719  -0.31867   0.01798
  12        4PY        -0.00000   0.00000  -0.31867  -0.00719  -0.01189
  13        4PZ         0.06215  -0.00103   0.00000  -0.00000   0.00000
  14        5XX        -0.00217  -0.00159  -0.36991   0.03131  -0.00361
  15        5YY        -0.00217  -0.00159   0.36991  -0.03131   0.00361
  16        5ZZ         0.00130   0.00633   0.00000  -0.00000  -0.00000
  17        5XY        -0.00000   0.00000  -0.03616  -0.42714   0.00418
  18        5XZ         0.00000   0.00000  -0.01931   0.07160   0.00621
  19        5YZ         0.00000  -0.00000   0.07160   0.01931  -0.18065
  20 2   C  1S         -0.00034   0.00017   0.00000  -0.00000  -0.00000
  21        2S         -0.02314  -0.01608  -0.00000   0.00000   0.00000
  22        2PX        -0.00000   0.00000   0.00988   0.14403   0.00370
  23        2PY         0.00000   0.00000   0.14403  -0.00988  -0.06535
  24        2PZ         0.00143  -0.00174  -0.00000   0.00000  -0.00000
  25        3S          0.07049   0.02958   0.00000  -0.00000  -0.00000
  26        3PX         0.00000  -0.00000  -0.02487  -0.87178   0.01423
  27        3PY        -0.00000  -0.00000  -0.87178   0.02487   0.29643
  28        3PZ         0.00134  -0.00192  -0.00000  -0.00000   0.00000
  29        4S          0.22952   0.01036   0.00000  -0.00000  -0.00000
  30        4PX        -0.00000   0.00000   0.00719   0.31867  -0.01798
  31        4PY         0.00000   0.00000   0.31867  -0.00719  -0.01189
  32        4PZ         0.06215   0.00103   0.00000   0.00000  -0.00000
  33        5XX         0.00217  -0.00159   0.36991   0.03131  -0.00361
  34        5YY         0.00217  -0.00159  -0.36991  -0.03131   0.00361
  35        5ZZ        -0.00130   0.00633  -0.00000  -0.00000  -0.00000
  36        5XY        -0.00000  -0.00000  -0.03616   0.42714  -0.00418
  37        5XZ        -0.00000   0.00000   0.01931   0.07160   0.00621
  38        5YZ         0.00000   0.00000   0.07160  -0.01931   0.18065
  39 3   H  1S         -0.00110   0.00400  -0.48472  -0.00633  -0.03821
  40        2S          0.02482  -0.01642   0.06055   0.00974  -0.13365
  41        3PX         0.41046   0.41055   0.02310  -0.26099   0.01385
  42        3PY         0.01914   0.01741  -0.27156  -0.02151  -0.20464
  43        3PZ         0.00176   0.00119   0.06770  -0.00391   0.49256
  44 4   H  1S         -0.00110   0.00400   0.24785  -0.41661   0.03036
  45        2S          0.02482  -0.01642  -0.03871   0.04757   0.04737
  46        3PX        -0.18865  -0.19019   0.02648  -0.26960  -0.02260
  47        3PY        -0.36504  -0.36425  -0.26295  -0.01813  -0.25707
  48        3PZ         0.00176   0.00119  -0.03047   0.06059  -0.23372
  49 5   H  1S         -0.00110   0.00400   0.23687   0.42295   0.00785
  50        2S          0.02482  -0.01642  -0.02184  -0.05731   0.08629
  51        3PX        -0.22180  -0.22036   0.01733  -0.26823   0.04103
  52        3PY         0.34590   0.34684  -0.26432  -0.02728  -0.26242
  53        3PZ         0.00176   0.00119  -0.03724  -0.05668  -0.25884
  54 6   H  1S          0.00110   0.00400  -0.23687   0.42295   0.00785
  55        2S         -0.02482  -0.01642   0.02184  -0.05731   0.08629
  56        3PX        -0.22180   0.22036   0.01733   0.26823  -0.04103
  57        3PY        -0.34590   0.34684   0.26432  -0.02728  -0.26242
  58        3PZ         0.00176  -0.00119  -0.03724   0.05668   0.25884
  59 7   H  1S          0.00110   0.00400  -0.24785  -0.41661   0.03036
  60        2S         -0.02482  -0.01642   0.03871   0.04757   0.04737
  61        3PX        -0.18865   0.19019   0.02648   0.26960   0.02260
  62        3PY         0.36504  -0.36425   0.26295  -0.01813  -0.25707
  63        3PZ         0.00176  -0.00119  -0.03047  -0.06059   0.23372
  64 8   H  1S          0.00110   0.00400   0.48472  -0.00633  -0.03821
  65        2S         -0.02482  -0.01642  -0.06055   0.00974  -0.13365
  66        3PX         0.41046  -0.41055   0.02310   0.26099  -0.01385
  67        3PY        -0.01914   0.01741   0.27156  -0.02151  -0.20464
  68        3PZ         0.00176  -0.00119   0.06770   0.00391  -0.49256
                          51        52        53        54        55
                        (E)--V    (A2)--V   (E)--V    (E)--V    (A1)--V
     Eigenvalues --     2.24935   2.39367   2.59987   2.59987   2.67097
   1 1   C  1S         -0.00000  -0.08671   0.00000   0.00000  -0.01180
   2        2S          0.00000  -0.24035   0.00000   0.00000   0.06820
   3        2PX        -0.06535   0.00000   0.15152   0.00771   0.00000
   4        2PY         0.00370   0.00000  -0.00771   0.15152   0.00000
   5        2PZ        -0.00000  -0.29651   0.00000   0.00000   0.01139
   6        3S         -0.00000   2.94800  -0.00000  -0.00000   0.42629
   7        3PX         0.29643  -0.00000   0.80338  -0.00875  -0.00000
   8        3PY         0.01423  -0.00000   0.00875   0.80338  -0.00000
   9        3PZ        -0.00000  -1.66563  -0.00000   0.00000   0.46376
  10        4S         -0.00000  -0.01329  -0.00000   0.00000   0.05805
  11        4PX        -0.01189  -0.00000   0.12872  -0.00648  -0.00000
  12        4PY        -0.01798  -0.00000   0.00648   0.12872  -0.00000
  13        4PZ         0.00000   0.19146   0.00000  -0.00000  -0.11464
  14        5XX        -0.00362  -0.25726  -0.03803   0.13887  -0.20035
  15        5YY         0.00362  -0.25726   0.03803  -0.13887  -0.20035
  16        5ZZ         0.00000   0.48396   0.00000  -0.00000   0.24229
  17        5XY        -0.00417  -0.00000   0.16035   0.04391  -0.00000
  18        5XZ        -0.18065   0.00000  -0.43018   0.02554   0.00000
  19        5YZ        -0.00621  -0.00000  -0.02554  -0.43018   0.00000
  20 2   C  1S          0.00000   0.08671   0.00000  -0.00000  -0.01180
  21        2S         -0.00000   0.24035   0.00000  -0.00000   0.06820
  22        2PX        -0.06535   0.00000  -0.15152   0.00771  -0.00000
[...]
     19 -0.428940D-03  0.261608D-01 -0.103057D-01  0.472593D-01
     20 -0.112967D-03 -0.126116D-01  0.409594D-02 -0.109326D-01  0.300061D+00
     21 -0.653507D-03 -0.110715D-01  0.375741D-02  0.406366D-02 -0.943308D-01
     22 -0.208450D-01 -0.143736D-01 -0.926147D-02  0.171312D-02  0.134968D-02
     23  0.119002D-01  0.780445D-02  0.610172D-02 -0.249241D-01 -0.147537D-01
     24  0.870004D-02  0.687703D-02  0.375741D-02  0.991498D-02  0.496981D-02
               21            22            23            24 
     21  0.876446D-01
     22  0.160566D-02  0.227393D+00
     23 -0.109730D-01  0.114933D+00  0.119928D+00
     24  0.375741D-02  0.796611D-01  0.506847D-01  0.876446D-01
 Force constants in internal coordinates: 
                1             2             3             4             5 
      1  0.284758D+00
      2  0.551574D-02  0.336338D+00
      3  0.551590D-02  0.285664D-02  0.336339D+00
      4  0.551575D-02  0.285686D-02  0.285664D-02  0.336338D+00
      5  0.551575D-02 -0.976177D-03  0.639019D-03  0.636866D-03  0.336338D+00
      6  0.551590D-02  0.637109D-03 -0.976675D-03  0.639019D-03  0.285664D-02
      7  0.551574D-02  0.638775D-03  0.637109D-03 -0.976177D-03  0.285686D-02
      8  0.152895D-01  0.210760D-03 -0.551143D-02 -0.551120D-02  0.410263D-02
      9  0.152894D-01 -0.551121D-02  0.210906D-03 -0.551169D-02 -0.111199D-02
     10  0.152895D-01 -0.551169D-02 -0.551094D-02  0.210761D-03 -0.110809D-02
     11 -0.163105D-01  0.562266D-02  0.562168D-02  0.289487D-03 -0.117200D-02
     12 -0.163102D-01  0.562194D-02  0.289408D-03  0.562254D-02 -0.117371D-02
     13 -0.163105D-01  0.289487D-03  0.562229D-02  0.562206D-02  0.337455D-03
     14  0.152895D-01  0.410263D-02 -0.111217D-02 -0.110809D-02  0.210761D-03
     15  0.152894D-01 -0.110826D-02  0.410263D-02 -0.111199D-02 -0.551169D-02
     16  0.152895D-01 -0.111181D-02 -0.110845D-02  0.410263D-02 -0.551120D-02
     17 -0.163105D-01 -0.117378D-02 -0.117172D-02  0.337455D-03  0.562206D-02
     18 -0.163102D-01 -0.117193D-02  0.337541D-03 -0.117371D-02  0.562254D-02
     19 -0.163105D-01  0.337455D-03 -0.117350D-02 -0.117200D-02  0.289487D-03
     20  0.292836D-05  0.000000D+00  0.300970D-02 -0.301072D-02  0.000000D+00
     21  0.276684D-05  0.537525D-03  0.354706D-02 -0.408546D-02  0.354714D-02
     22  0.260808D-05 -0.537215D-03  0.408469D-02 -0.354833D-02 -0.354833D-02
     23  0.308712D-05 -0.354823D-02 -0.537367D-03  0.408474D-02 -0.537264D-03
     24  0.292561D-05 -0.301083D-02  0.000000D+00  0.301000D-02  0.301000D-02
     25  0.276684D-05 -0.408557D-02  0.537628D-03  0.354714D-02 -0.408546D-02
     26  0.324864D-05  0.354723D-02 -0.408552D-02  0.537477D-03  0.537477D-03
     27  0.308712D-05  0.408463D-02 -0.354815D-02 -0.537264D-03  0.408474D-02
     28  0.292836D-05  0.300989D-02 -0.301053D-02  0.000000D+00 -0.301072D-02
                6             7             8             9            10 
      6  0.336339D+00
      7  0.285664D-02  0.336338D+00
      8 -0.110845D-02 -0.111181D-02  0.102062D+00
      9  0.410263D-02 -0.110826D-02 -0.200033D-01  0.102062D+00
     10 -0.111217D-02  0.410263D-02 -0.200037D-01 -0.200033D-01  0.102062D+00
     11 -0.117350D-02  0.337455D-03 -0.400219D-01 -0.400132D-01  0.138362D-01
     12  0.337541D-03 -0.117193D-02 -0.400133D-01  0.138362D-01 -0.400217D-01
     13 -0.117172D-02 -0.117378D-02  0.138362D-01 -0.400216D-01 -0.400135D-01
     14 -0.551094D-02 -0.551169D-02  0.172620D-01 -0.702104D-02 -0.699850D-02
     15  0.210906D-03 -0.551121D-02 -0.699826D-02  0.172616D-01 -0.702104D-02
     16 -0.551143D-02  0.210760D-03 -0.702128D-02 -0.699826D-02  0.172620D-01
     17  0.562229D-02  0.289487D-03 -0.393734D-02 -0.392407D-02  0.440253D-02
     18  0.289408D-03  0.562194D-02 -0.392417D-02  0.440247D-02 -0.393732D-02
     19  0.562168D-02  0.562266D-02  0.440253D-02 -0.393723D-02 -0.392418D-02
     20 -0.301053D-02  0.300989D-02 -0.383890D-05  0.281091D-02 -0.280918D-02
     21  0.537628D-03 -0.408557D-02  0.194737D-02  0.476328D-02 -0.671273D-02
     22  0.408469D-02 -0.537215D-03 -0.195618D-02  0.671437D-02 -0.476024D-02
     23 -0.354815D-02  0.408463D-02 -0.476035D-02 -0.195615D-02  0.671450D-02
     24  0.000000D+00 -0.301083D-02 -0.280914D-02 -0.377983D-05  0.281095D-02
     25  0.354706D-02  0.537525D-03 -0.671269D-02  0.194731D-02  0.476344D-02
     26 -0.408552D-02  0.354723D-02  0.476334D-02 -0.671255D-02  0.194734D-02
     27 -0.537367D-03 -0.354823D-02  0.671455D-02 -0.476019D-02 -0.195621D-02
     28  0.300970D-02  0.000000D+00  0.281100D-02 -0.280910D-02 -0.372152D-05
               11            12            13            14            15 
     11  0.518875D-01
     12  0.936582D-02  0.518874D-01
     13  0.936588D-02  0.936582D-02  0.518875D-01
     14 -0.392418D-02 -0.393732D-02  0.440253D-02  0.102062D+00
     15 -0.393723D-02  0.440247D-02 -0.392407D-02 -0.200033D-01  0.102062D+00
     16  0.440253D-02 -0.392417D-02 -0.393734D-02 -0.200037D-01 -0.200033D-01
     17  0.304616D-02  0.323824D-03  0.319858D-03 -0.400135D-01 -0.400216D-01
     18  0.319964D-03  0.304620D-02  0.323824D-03 -0.400217D-01  0.138362D-01
     19  0.323719D-03  0.319964D-03  0.304616D-02  0.138362D-01 -0.400132D-01
     20  0.656784D-02 -0.656317D-02 -0.242306D-05 -0.372152D-05 -0.280910D-02
     21  0.511192D-02 -0.583722D-02  0.727512D-03  0.476344D-02  0.194731D-02
     22  0.583785D-02 -0.510725D-02 -0.728410D-03 -0.476024D-02  0.671437D-02
     23 -0.510719D-02 -0.728489D-03  0.583780D-02 -0.195621D-02 -0.476019D-02
     24 -0.656311D-02 -0.253165D-05  0.656774D-02  0.281095D-02 -0.377983D-05
     25 -0.583719D-02  0.727434D-03  0.511182D-02 -0.671273D-02  0.476328D-02
     26  0.727355D-03  0.511188D-02 -0.583723D-02  0.194734D-02 -0.671255D-02
     27 -0.728567D-03  0.583784D-02 -0.510730D-02  0.671450D-02 -0.195615D-02
     28 -0.264059D-05  0.656780D-02 -0.656322D-02 -0.280918D-02  0.281091D-02
               16            17            18            19            20 
     16  0.102062D+00
     17  0.138362D-01  0.518875D-01
     18 -0.400133D-01  0.936582D-02  0.518874D-01
     19 -0.400219D-01  0.936588D-02  0.936582D-02  0.518875D-01
     20  0.281100D-02 -0.656322D-02  0.656780D-02 -0.264059D-05  0.138981D-01
     21 -0.671269D-02  0.511182D-02  0.727434D-03 -0.583719D-02  0.366289D-02
     22 -0.195618D-02 -0.728410D-03 -0.510725D-02  0.583785D-02  0.366082D-02
     23  0.671455D-02 -0.510730D-02  0.583784D-02 -0.728567D-03  0.366090D-02
     24 -0.280914D-02  0.656774D-02 -0.253165D-05 -0.656311D-02 -0.657431D-02
     25  0.194737D-02  0.727512D-03 -0.583722D-02  0.511192D-02 -0.657637D-02
     26  0.476334D-02 -0.583723D-02  0.511188D-02  0.727355D-03  0.366281D-02
     27 -0.476035D-02  0.583780D-02 -0.728489D-03 -0.510719D-02 -0.657241D-02
     28 -0.383890D-05 -0.242306D-05 -0.656317D-02  0.656784D-02 -0.657447D-02
               21            22            23            24            25 
     21  0.146949D-01
     22  0.405925D-02  0.146908D-01
     23 -0.736915D-02 -0.697076D-02  0.146909D-01
     24  0.366282D-02 -0.657232D-02  0.366084D-02  0.138980D-01
     25 -0.697278D-02  0.405925D-02  0.405923D-02  0.366282D-02  0.146949D-01
     26 -0.697274D-02 -0.736919D-02  0.405925D-02 -0.657629D-02 -0.697274D-02
     27  0.405923D-02 -0.697076D-02 -0.697080D-02  0.366084D-02 -0.736915D-02
     28 -0.657637D-02  0.366082D-02 -0.657241D-02 -0.657431D-02  0.366289D-02
               26            27            28 
     26  0.146948D-01
     27  0.405925D-02  0.146909D-01
     28  0.366281D-02  0.366090D-02  0.138981D-01
 Leave Link  716 at Sat Mar 23 11:22:21 2024, MaxMem=   13107200 cpu:       0.0
 (Enter /programs/64bit/g09/g09-gfortran/bin/l103.exe)

 GradGradGradGradGradGradGradGradGradGradGradGradGradGradGradGradGradGrad
 Berny optimization.
 Internal  Forces:  Max     0.000027176 RMS     0.000012893
 Search for a local minimum.
 Step number   1 out of a maximum of    2
 All quantities printed in internal units (Hartrees-Bohrs-Radians)
 Second derivative matrix not updated -- analytic derivatives used.
     Eigenvalues ---    0.00225   0.04507   0.04507   0.04709   0.04709
     Eigenvalues ---    0.12001   0.12277   0.12277   0.12416   0.17633
     Eigenvalues ---    0.17634   0.30134   0.33311   0.33311   0.33555
     Eigenvalues ---    0.33555   0.34334   0.345371000.000001000.00000
     Eigenvalues --- 1000.000001000.000001000.000001000.000001000.00000
     Eigenvalues --- 1000.000001000.000001000.00000
 Angle between quadratic step and forces=  79.93 degrees.
 Linear search not attempted -- first point.
 Iteration  1 RMS(Cart)=  0.00026704 RMS(Int)=  0.00000004
 Iteration  2 RMS(Cart)=  0.00000004 RMS(Int)=  0.00000000
 ClnCor:  largest displacement from symmetrization is 1.34D-09 for atom     6.
 Variable       Old X    -DE/DX   Delta X   Delta X   Delta X     New X
                                 (Linear)    (Quad)   (Total)
    R1        2.89523   0.00003   0.00000   0.00007   0.00007   2.89530
    R2        2.07035   0.00002   0.00000   0.00007   0.00007   2.07042
    R3        2.07035   0.00002   0.00000   0.00007   0.00007   2.07042
    R4        2.07035   0.00002   0.00000   0.00007   0.00007   2.07042
    R5        2.07035   0.00002   0.00000   0.00007   0.00007   2.07042
    R6        2.07035   0.00002   0.00000   0.00007   0.00007   2.07042
    R7        2.07035   0.00002   0.00000   0.00007   0.00007   2.07042
    A1        1.94342   0.00000   0.00000   0.00003   0.00003   1.94345
    A2        1.94342   0.00000   0.00000   0.00003   0.00003   1.94345
    A3        1.94342   0.00000   0.00000   0.00003   0.00003   1.94345
    A4        1.87673  -0.00000   0.00000  -0.00003  -0.00003   1.87670
    A5        1.87673  -0.00000   0.00000  -0.00003  -0.00003   1.87670
    A6        1.87673  -0.00000   0.00000  -0.00003  -0.00003   1.87670
    A7        1.94342   0.00000   0.00000   0.00003   0.00003   1.94345
    A8        1.94342   0.00000   0.00000   0.00003   0.00003   1.94345
    A9        1.94342   0.00000   0.00000   0.00003   0.00003   1.94345
   A10        1.87673  -0.00000   0.00000  -0.00003  -0.00003   1.87670
   A11        1.87673  -0.00000   0.00000  -0.00003  -0.00003   1.87670
   A12        1.87673  -0.00000   0.00000  -0.00003  -0.00003   1.87670
    D1        3.14057   0.00000   0.00000   0.00058   0.00058   3.14115
    D2       -1.04822   0.00000   0.00000   0.00058   0.00058  -1.04764
    D3        1.04617   0.00000   0.00000   0.00058   0.00058   1.04676
    D4        1.04617   0.00000   0.00000   0.00058   0.00058   1.04676
    D5        3.14057   0.00000   0.00000   0.00058   0.00058   3.14115
    D6       -1.04822   0.00000   0.00000   0.00058   0.00058  -1.04764
    D7       -1.04822   0.00000   0.00000   0.00058   0.00058  -1.04764
    D8        1.04617   0.00000   0.00000   0.00058   0.00058   1.04676
    D9        3.14057   0.00000   0.00000   0.00058   0.00058   3.14115
         Item               Value     Threshold  Converged?
 Maximum Force            0.000027     0.000450     YES
 RMS     Force            0.000013     0.000300     YES
 Maximum Displacement     0.000565     0.001800     YES
 RMS     Displacement     0.000267     0.001200     YES
 Predicted change in Energy=-1.053272D-08
 Optimization completed.
    -- Stationary point found.
                           ----------------------------
                           !   Optimized Parameters   !
                           ! (Angstroms and Degrees)  !
 --------------------------                            --------------------------
 ! Name  Definition              Value          Derivative Info.                !
 --------------------------------------------------------------------------------
 ! R1    R(1,2)                  1.5321         -DE/DX =    0.0                 !
 ! R2    R(1,3)                  1.0956         -DE/DX =    0.0                 !
 ! R3    R(1,4)                  1.0956         -DE/DX =    0.0                 !
 ! R4    R(1,5)                  1.0956         -DE/DX =    0.0                 !
 ! R5    R(2,6)                  1.0956         -DE/DX =    0.0                 !
 ! R6    R(2,7)                  1.0956         -DE/DX =    0.0                 !
 ! R7    R(2,8)                  1.0956         -DE/DX =    0.0                 !
 ! A1    A(2,1,3)              111.3499         -DE/DX =    0.0                 !
 ! A2    A(2,1,4)              111.3499         -DE/DX =    0.0                 !
 ! A3    A(2,1,5)              111.3499         -DE/DX =    0.0                 !
 ! A4    A(3,1,4)              107.5289         -DE/DX =    0.0                 !
 ! A5    A(3,1,5)              107.5289         -DE/DX =    0.0                 !
 ! A6    A(4,1,5)              107.5289         -DE/DX =    0.0                 !
 ! A7    A(1,2,6)              111.3499         -DE/DX =    0.0                 !
 ! A8    A(1,2,7)              111.3499         -DE/DX =    0.0                 !
 ! A9    A(1,2,8)              111.3499         -DE/DX =    0.0                 !
 ! A10   A(6,2,7)              107.5289         -DE/DX =    0.0                 !
 ! A11   A(6,2,8)              107.5289         -DE/DX =    0.0                 !
 ! A12   A(7,2,8)              107.5289         -DE/DX =    0.0                 !
 ! D1    D(3,1,2,6)            179.9412         -DE/DX =    0.0                 !
 ! D2    D(3,1,2,7)            -60.0588         -DE/DX =    0.0                 !
 ! D3    D(3,1,2,8)             59.9412         -DE/DX =    0.0                 !
 ! D4    D(4,1,2,6)             59.9412         -DE/DX =    0.0                 !
 ! D5    D(4,1,2,7)            179.9412         -DE/DX =    0.0                 !
 ! D6    D(4,1,2,8)            -60.0588         -DE/DX =    0.0                 !
 ! D7    D(5,1,2,6)            -60.0588         -DE/DX =    0.0                 !
 ! D8    D(5,1,2,7)             59.9412         -DE/DX =    0.0                 !
 ! D9    D(5,1,2,8)            179.9412         -DE/DX =    0.0                 !
 --------------------------------------------------------------------------------
 GradGradGradGradGradGradGradGradGradGradGradGradGradGradGradGradGradGrad

 Leave Link  103 at Sat Mar 23 11:22:21 2024, MaxMem=   13107200 cpu:       0.0
 (Enter /programs/64bit/g09/g09-gfortran/bin/l9999.exe)
 1\1\GINC-MOLMOD\Freq\RB3LYP\6-31+G(d,p)\C2H6\OSPITE\23-Mar-2024\0\\#P 
 Geom=AllCheck Guess=TCheck SCRF=Check GenChk RB3LYP/6-31+G(d,p) Freq\\
 c2h6_symm\\0,1\C,0.,0.,-0.0160459646\C,0.,0.,1.5160459646\H,0.90534558
 4,-0.4707027282,-0.4149074094\H,-0.0450322717,1.0194036391,-0.41490740
 94\H,-0.8603133123,-0.5487009108,-0.4149074094\H,-0.9048619958,0.47163
 16925,1.9149074094\H,0.043985971,-1.0194493215,1.9149074094\H,0.860876
 0248,0.5478176291,1.9149074094\\Version=EM64L-G09RevA.02\State=1-A1\HF
 =-79.8416414\RMSD=3.664e-11\RMSF=1.308e-05\ZeroPoint=0.0746086\Thermal
 =0.0780953\Dipole=0.,0.,0.\DipoleDeriv=0.1055636,0.0000323,0.0000017,-
 0.0000308,0.1055456,-0.0000372,-0.0000002,0.0000028,0.0741313,0.105563
 6,-0.0000307,0.0000015,0.0000324,0.1055456,-0.0000372,0.,0.0000028,0.0
 741313,-0.0974405,0.0887249,0.0944816,0.0887166,0.0270695,-0.0491095,0
 .0557329,-0.0290029,-0.0247075,0.0727777,0.0095553,-0.0047079,0.009547
 6,-0.1431468,0.1063911,-0.0027451,0.0627597,-0.0247119,-0.0808972,-0.0
 98269,-0.0897745,-0.0982761,0.0105262,-0.0572629,-0.0529878,-0.0337582
 ,-0.0247075,-0.0972676,0.0888383,0.0944237,0.0888454,0.0268966,-0.0492
 207,0.0557284,-0.0290116,-0.0247075,0.0727961,0.0093373,-0.0045826,0.0
 09345,-0.1431652,0.1063965,-0.0027353,0.0627602,-0.0247119,-0.0810885,
 -0.0981875,-0.0898418,-0.0981792,0.0107175,-0.0571573,-0.0529931,-0.03
 375,-0.0247075\Polar=24.5715635,0.000012,24.5712881,-0.0000012,0.00002
 85,27.3600027\PG=D03 [C3(C1.C1),X(H6)]\NImag=0\\0.56661195,-0.00000011
 ,0.56661431,0.00000002,-0.00000060,0.46995544,-0.07923883,-0.00000837,
 0.00000007,0.56661195,0.00000787,-0.07923311,-0.00000194,-0.00000010,0
 .56661431,0.00000009,-0.00000193,-0.19754885,0.00000003,-0.00000060,0.
 46995544,-0.22943833,0.09399209,0.07626806,0.00183410,-0.00114527,-0.0
 0086198,0.24653402,0.09399295,-0.09753687,-0.03964143,-0.00113983,0.00
 022331,0.00044242,-0.10385591,0.10078603,0.07531309,-0.03914422,-0.078
 44579,0.02886299,-0.01501522,-0.01235600,-0.08377540,0.04354887,0.0876
 4459,-0.04911176,0.01011881,-0.00380383,-0.00036334,-0.00012878,0.0000
 4820,-0.00045880,0.02617475,-0.01031040,0.04728117,0.01011949,-0.27786
 329,0.08587123,-0.00012310,0.00242014,-0.00096707,-0.00009904,-0.01258
 175,0.00408675,-0.01118277,0.30003888,-0.00375676,0.08479638,-0.078446
 00,-0.00142799,0.03250393,-0.01235640,-0.00064319,-0.01107115,0.003757
 41,0.00417327,-0.09432606,0.08764459,-0.21191150,-0.10411182,-0.072464
 22,0.00161592,0.00126561,0.00081372,-0.02084212,-0.01440643,-0.0092663
 0,0.00174010,0.00136858,0.00161597,0.22716489,-0.10411132,-0.11506370,
 -0.04622982,0.00127152,0.00044148,0.00052594,0.01186736,0.00780158,0.0
 0609260,-0.02490522,-0.01478065,-0.01097244,0.11503869,0.12015517,-0.0
 7155637,-0.04565104,-0.07844579,-0.02743501,-0.01748856,-0.01235600,0.
 00869443,0.00688569,0.00375741,0.00990950,0.00497855,0.00375741,0.0796
 0212,0.05077719,0.08764459,0.00182728,-0.00114437,-0.00085646,-0.22925
 461,0.09412141,0.07621767,0.00156330,-0.00034069,-0.00053551,0.0000421
 6,-0.00038386,0.00046863,0.00076848,-0.00003961,0.00038372,0.24632829,
 -0.00115028,0.00023012,0.00045302,0.09412091,-0.09772059,-0.03973823,-
 0.00034223,0.00108511,0.00028107,-0.00054463,0.00047512,-0.00014439,0.
 00012918,-0.00025534,-0.00030278,-0.10399997,0.10099177,0.02885484,-0.
 01503089,-0.01235600,0.07526283,-0.03924077,-0.07844579,-0.00053739,0.
 00027745,-0.00718602,0.00006719,0.00048574,0.00141930,-0.00035587,-0.0
 0033508,0.00140912,-0.08372474,0.04364618,0.08764459,-0.00036406,-0.00
 011481,0.00003627,-0.04909221,0.00989607,-0.00369481,0.00003940,-0.000
 55011,0.00007036,0.00090894,-0.00003556,0.00002435,-0.00003516,0.00049
 998,-0.00010927,-0.00042894,0.02616083,-0.01030570,0.04725928,-0.00012
 049,0.00242086,-0.00096759,0.00989539,-0.27788284,0.08587599,-0.000381
 32,0.00047374,0.00048370,-0.00003710,0.00173946,-0.00060430,0.00033922
 ,0.00055245,0.00047804,-0.00011297,-0.01261160,0.00409594,-0.01093258,
 0.30006077,-0.00141035,0.03250470,-0.01235640,-0.00364802,0.08480113,-
 0.07844600,0.00046812,-0.00014065,0.00140912,0.00002842,-0.00060412,-0
 .00718602,-0.00045426,-0.00018468,0.00141930,-0.00065351,-0.01107153,0
 .00375741,0.00406366,-0.09433084,0.08764459,0.00162346,0.00126777,0.00
 082014,-0.21211476,-0.10401635,-0.07252286,0.00076893,0.00012503,-0.00
 035936,-0.00003817,0.00033654,-0.00045408,0.00150037,0.00037856,0.0005
 1117,-0.02084499,-0.01437361,-0.00926147,0.00171312,0.00134968,0.00160
 566,0.22739251,0.00126233,0.00043394,0.00051587,-0.10401722,-0.1148604
 4,-0.04613779,-0.00003574,-0.00025164,-0.00033365,0.00050533,0.0005513
 1,-0.00018092,0.00037702,0.00114804,0.00032323,0.01190018,0.00780445,0
 .00610172,-0.02492411,-0.01475366,-0.01097296,0.11493254,0.11992754,-0
 .02744450,-0.01747366,-0.01235600,-0.07161485,-0.04555924,-0.07844579,
 0.00038707,-0.00030106,0.00141930,-0.00011225,0.00047573,0.00140912,0.
 00050898,0.00032667,-0.00718602,0.00870004,0.00687703,0.00375741,0.009
 91498,0.00496981,0.00375741,0.07966107,0.05068466,0.08764459\\0.,0.,-0
 .00001227,0.,0.,0.00001227,-0.00001803,0.00001167,0.00001315,-0.000001
 10,-0.00002145,0.00001315,0.00001912,0.00000977,0.00001315,0.00001990,
 -0.00000807,-0.00001315,-0.00000296,0.00002127,-0.00001315,-0.00001694
 ,-0.00001320,-0.00001315\\\@


 The cat could very well be man's best friend
 but would never stoop to admitting it.
                               -- Doug Larson
 Job cpu time:  0 days  0 hours  0 minutes  6.3 seconds.
 File lengths (MBytes):  RWF=      5 Int=      0 D2E=      0 Chk=      2 Scr=      1
 Normal termination of Gaussian 09 at Sat Mar 23 11:22:21 2024.
