 Entering Gaussian System, Link 0=/programs/64bit/g09/g09-gfortran/bin/g09
 Input=c2h6.com
 Output=c2h6.log
 Initial command:
 /programs/64bit/g09/g09-gfortran/bin/l1.exe /home/ospite/QM/c2h6/Gau-6609.inp -scrdir=/home/ospite/QM/c2h6/
 Entering Link 1 = /programs/64bit/g09/g09-gfortran/bin/l1.exe PID=      6610.
  
 Copyright (c) 1988,1990,1992,1993,1995,1998,2003,2009, Gaussian, Inc.
                  All Rights Reserved.
  
 This is part of the Gaussian(R) 09 program.  It is based on
 the Gaussian(R) 03 system (copyright 2003, Gaussian, Inc.),
 the Gaussian(R) 98 system (copyright 1998, Gaussian, Inc.),
 the Gaussian(R) 94 system (copyright 1995, Gaussian, Inc.),
 the Gaussian 92(TM) system (copyright 1992, Gaussian, Inc.),
 the Gaussian 90(TM) system (copyright 1990, Gaussian, Inc.),
 the Gaussian 88(TM) system (copyright 1988, Gaussian, Inc.),
 the Gaussian 86(TM) system (copyright 1986, Carnegie Mellon
 University), and the Gaussian 82(TM) system (copyright 1983,
 Carnegie Mellon University). Gaussian is a federally registered
 trademark of Gaussian, Inc.
  
 This software contains proprietary and confidential information,
 including trade secrets, belonging to Gaussian, Inc.
  
 This software is provided under written license and may be
 used, copied, transmitted, or stored only in accord with that
 written license.
  
 The following legend is applicable only to US Government
 contracts under FAR:
  
                    RESTRICTED RIGHTS LEGEND
  
 Use, reproduction and disclosure by the US Government is
 subject to restrictions as set forth in subparagraphs (a)
 and (c) of the Commercial Computer Software - Restricted
 Rights clause in FAR 52.227-19.
  
 Gaussian, Inc.
 340 Quinnipiac St., Bldg. 40, Wallingford CT 06492
  
  
 ---------------------------------------------------------------
 Warning -- This program may not be used in any manner that
 competes with the business of Gaussian, Inc. or will provide
 assistance to any competitor of Gaussian, Inc.  The licensee
 of this program is prohibited from giving any competitor of
 Gaussian, Inc. access to this program.  By using this program,
 the user acknowledges that Gaussian, Inc. is engaged in the
 business of creating and licensing software in the field of
 computational chemistry and represents and warrants to the
 licensee that it is not a competitor of Gaussian, Inc. and that
 it will not use this program in any manner prohibited above.
 ---------------------------------------------------------------
  

 Cite this work as:
 Gaussian 09, Revision A.02,
 M. J. Frisch, G. W. Trucks, H. B. Schlegel, G. E. Scuseria, 
 M. A. Robb, J. R. Cheeseman, G. Scalmani, V. Barone, B. Mennucci, 
 G. A. Petersson, H. Nakatsuji, M. Caricato, X. Li, H. P. Hratchian, 
 A. F. Izmaylov, J. Bloino, G. Zheng, J. L. Sonnenberg, M. Hada, 
 M. Ehara, K. Toyota, R. Fukuda, J. Hasegawa, M. Ishida, T. Nakajima, 
 Y. Honda, O. Kitao, H. Nakai, T. Vreven, J. A. Montgomery, Jr., 
 J. E. Peralta, F. Ogliaro, M. Bearpark, J. J. Heyd, E. Brothers, 
 K. N. Kudin, V. N. Staroverov, R. Kobayashi, J. Normand, 
 K. Raghavachari, A. Rendell, J. C. Burant, S. S. Iyengar, J. Tomasi, 
 M. Cossi, N. Rega, J. M. Millam, M. Klene, J. E. Knox, J. B. Cross, 
 V. Bakken, C. Adamo, J. Jaramillo, R. Gomperts, R. E. Stratmann, 
 O. Yazyev, A. J. Austin, R. Cammi, C. Pomelli, J. W. Ochterski, 
 R. L. Martin, K. Morokuma, V. G. Zakrzewski, G. A. Voth, 
 P. Salvador, J. J. Dannenberg, S. Dapprich, A. D. Daniels, 
 O. Farkas, J. B. Foresman, J. V. Ortiz, J. Cioslowski, 
 and D. J. Fox, Gaussian, Inc., Wallingford CT, 2009.
 
 ******************************************
 Gaussian 09:  EM64L-G09RevA.02 11-Jun-2009
                26-Mar-2024 
 ******************************************
 %chk=tmp
 %mem=100MB
 ----------------------------------------------
 #p B3LYP/6-31+g(d,p) opt freq pop=full gfinput
 ----------------------------------------------
 1/14=-1,18=20,19=15,26=3,38=1/1,3;
 2/9=110,12=2,17=6,18=5,40=1/2;
 3/5=1,6=6,7=111,11=2,16=1,24=10,25=1,30=1,71=1,74=-5/1,2,3;
 4//1;
 5/5=2,38=5/2;
 6/7=3,28=1/1;
 7//1,2,3,16;
 1/14=-1,18=20,19=15/3(2);
 2/9=110/2;
 99//99;
 2/9=110/2;
 3/5=1,6=6,7=111,11=2,16=1,25=1,30=1,71=1,74=-5/1,2,3;
 4/5=5,16=3/1;
 5/5=2,38=5/2;
 7//1,2,3,16;
 1/14=-1,18=20,19=15/3(-5);
 2/9=110/2;
 6/7=3,19=2,28=1/1;
 99/9=1/99;
 Leave Link    1 at Tue Mar 26 18:38:29 2024, MaxMem=   13107200 cpu:       0.0
 (Enter /programs/64bit/g09/g09-gfortran/bin/l101.exe)
 ----
 c2h6
 ----
 Symbolic Z-matrix:
 Charge =  0 Multiplicity = 1
 C1
 C2                   1    d1
 H3                   1    d2       2    a1
 H4                   2    d2       1    a1       3    t1       0
 H5                   1    d2       2    a1       4    t2       0
 H6                   2    d2       1    a1       5    t3       0
 H7                   1    d2       2    a1       6    t4       0
 H8                   2    d2       1    a1       7    t5       0
       Variables:
  d1                    1.5                      
  d2                    1.1                      
  a1                  109.5                      
  t1                  180.                       
  t2                   60.                       
  t3                  -60.                       
  t4                  180.                       
  t5                   60.                       
 
 NAtoms=      8 NQM=      8 NQMF=      0 NMic=      0 NMicF=      0 NTot=      8.
                    Isotopes and Nuclear Properties:
 (Nuclear quadrupole moments (NQMom) in fm**2, nuclear magnetic moments (NMagM)
  in nuclear magnetons)

  Atom         1           2           3           4           5           6           7           8
 IAtWgt=          12          12           1           1           1           1           1           1
 AtmWgt=  12.0000000  12.0000000   1.0078250   1.0078250   1.0078250   1.0078250   1.0078250   1.0078250
 NucSpn=           0           0           1           1           1           1           1           1
 AtZEff=   0.0000000   0.0000000   0.0000000   0.0000000   0.0000000   0.0000000   0.0000000   0.0000000
 NQMom=    0.0000000   0.0000000   0.0000000   0.0000000   0.0000000   0.0000000   0.0000000   0.0000000
 NMagM=    0.0000000   0.0000000   2.7928460   2.7928460   2.7928460   2.7928460   2.7928460   2.7928460
 Leave Link  101 at Tue Mar 26 18:38:29 2024, MaxMem=   13107200 cpu:       0.0
 (Enter /programs/64bit/g09/g09-gfortran/bin/l103.exe)

 GradGradGradGradGradGradGradGradGradGradGradGradGradGradGradGradGradGrad
 Berny optimization.
 Initialization pass.
                           ----------------------------
                           !    Initial Parameters    !
                           ! (Angstroms and Degrees)  !
 --------------------------                            --------------------------
 ! Name  Definition              Value          Derivative Info.                !
 --------------------------------------------------------------------------------
 ! R1    R(1,2)                  1.5            estimate D2E/DX2                !
 ! R2    R(1,3)                  1.1            estimate D2E/DX2                !
 ! R3    R(1,5)                  1.1            estimate D2E/DX2                !
 ! R4    R(1,7)                  1.1            estimate D2E/DX2                !
 ! R5    R(2,4)                  1.1            estimate D2E/DX2                !
 ! R6    R(2,6)                  1.1            estimate D2E/DX2                !
 ! R7    R(2,8)                  1.1            estimate D2E/DX2                !
 ! A1    A(2,1,3)              109.5            estimate D2E/DX2                !
 ! A2    A(2,1,5)              109.5            estimate D2E/DX2                !
 ! A3    A(2,1,7)              109.5            estimate D2E/DX2                !
 ! A4    A(3,1,5)              109.4424         estimate D2E/DX2                !
 ! A5    A(3,1,7)              109.4424         estimate D2E/DX2                !
 ! A6    A(5,1,7)              109.4424         estimate D2E/DX2                !
 ! A7    A(1,2,4)              109.5            estimate D2E/DX2                !
 ! A8    A(1,2,6)              109.5            estimate D2E/DX2                !
 ! A9    A(1,2,8)              109.5            estimate D2E/DX2                !
 ! A10   A(4,2,6)              109.4424         estimate D2E/DX2                !
 ! A11   A(4,2,8)              109.4424         estimate D2E/DX2                !
 ! A12   A(6,2,8)              109.4424         estimate D2E/DX2                !
 ! D1    D(3,1,2,4)            180.0            estimate D2E/DX2                !
 ! D2    D(3,1,2,6)             60.0            estimate D2E/DX2                !
 ! D3    D(3,1,2,8)            -60.0            estimate D2E/DX2                !
 ! D4    D(5,1,2,4)             60.0            estimate D2E/DX2                !
 ! D5    D(5,1,2,6)            -60.0            estimate D2E/DX2                !
 ! D6    D(5,1,2,8)            180.0            estimate D2E/DX2                !
 ! D7    D(7,1,2,4)            -60.0            estimate D2E/DX2                !
 ! D8    D(7,1,2,6)            180.0            estimate D2E/DX2                !
 ! D9    D(7,1,2,8)             60.0            estimate D2E/DX2                !
 --------------------------------------------------------------------------------
 Trust Radius=3.00D-01 FncErr=1.00D-07 GrdErr=1.00D-06
 Number of steps in this run=  38 maximum allowed number of steps= 100.
 GradGradGradGradGradGradGradGradGradGradGradGradGradGradGradGradGradGrad

 Leave Link  103 at Tue Mar 26 18:38:29 2024, MaxMem=   13107200 cpu:       0.0
 (Enter /programs/64bit/g09/g09-gfortran/bin/l202.exe)
                          Input orientation:                          
 ---------------------------------------------------------------------
 Center     Atomic      Atomic             Coordinates (Angstroms)
 Number     Number       Type             X           Y           Z
 ---------------------------------------------------------------------
      1          6           0        0.000000    0.000000    0.000000
      2          6           0        0.000000    0.000000    1.500000
      3          1           0        1.036906    0.000000   -0.367188
      4          1           0       -1.036906    0.000000    1.867188
      5          1           0       -0.518453    0.897987   -0.367188
      6          1           0        0.518453    0.897987    1.867188
      7          1           0       -0.518453   -0.897987   -0.367188
      8          1           0        0.518453   -0.897987    1.867188
 ---------------------------------------------------------------------
                    Distance matrix (angstroms):
                    1          2          3          4          5
     1  C    0.000000
     2  C    1.500000   0.000000
     3  H    1.100000   2.135782   0.000000
     4  H    2.135782   1.100000   3.048463   0.000000
     5  H    1.100000   2.135782   1.795973   2.463251   0.000000
     6  H    2.135782   1.100000   2.463251   1.795973   2.463251
     7  H    1.100000   2.135782   1.795973   2.463251   1.795973
     8  H    2.135782   1.100000   2.463251   1.795973   3.048463
                    6          7          8
     6  H    0.000000
     7  H    3.048463   0.000000
     8  H    1.795973   2.463251   0.000000
 Stoichiometry    C2H6
 Framework group  D3D[C3(C.C),3SGD(H2)]
 Deg. of freedom     3
 Full point group                 D3D     NOp  12
 Largest Abelian subgroup         C2H     NOp   4
 Largest concise Abelian subgroup C2H     NOp   4
                         Standard orientation:                         
 ---------------------------------------------------------------------
 Center     Atomic      Atomic             Coordinates (Angstroms)
 Number     Number       Type             X           Y           Z
 ---------------------------------------------------------------------
      1          6           0        0.000000    0.000000    0.750000
      2          6           0       -0.000000   -0.000000   -0.750000
      3          1           0        0.000000    1.036906    1.117188
      4          1           0       -0.000000   -1.036906   -1.117188
      5          1           0        0.897987   -0.518453    1.117188
      6          1           0        0.897987    0.518453   -1.117188
      7          1           0       -0.897987   -0.518453    1.117188
      8          1           0       -0.897987    0.518453   -1.117188
 ---------------------------------------------------------------------
 Rotational constants (GHZ):     77.7324451     20.7991960     20.7991960
 Leave Link  202 at Tue Mar 26 18:38:29 2024, MaxMem=   13107200 cpu:       0.0
 (Enter /programs/64bit/g09/g09-gfortran/bin/l301.exe)
 Standard basis: 6-31+G(d,p) (6D, 7F)
 Ernie: Thresh=  0.10000D-02 Tol=  0.10000D-05 Strict=F.
 AO basis set in the form of general basis input (Overlap normalization):
      1 0
 S   6 1.00       0.000000000000
      0.3047524880D+04  0.1834737132D-02
      0.4573695180D+03  0.1403732281D-01
      0.1039486850D+03  0.6884262226D-01
      0.2921015530D+02  0.2321844432D+00
      0.9286662960D+01  0.4679413484D+00
      0.3163926960D+01  0.3623119853D+00
 SP   3 1.00       0.000000000000
      0.7868272350D+01 -0.1193324198D+00  0.6899906659D-01
      0.1881288540D+01 -0.1608541517D+00  0.3164239610D+00
      0.5442492580D+00  0.1143456438D+01  0.7443082909D+00
 SP   1 1.00       0.000000000000
      0.1687144782D+00  0.1000000000D+01  0.1000000000D+01
 SP   1 1.00       0.000000000000
      0.4380000000D-01  0.1000000000D+01  0.1000000000D+01
 D   1 1.00       0.000000000000
      0.8000000000D+00  0.1000000000D+01
 ****
      2 0
 S   6 1.00       0.000000000000
      0.3047524880D+04  0.1834737132D-02
      0.4573695180D+03  0.1403732281D-01
      0.1039486850D+03  0.6884262226D-01
      0.2921015530D+02  0.2321844432D+00
      0.9286662960D+01  0.4679413484D+00
      0.3163926960D+01  0.3623119853D+00
 SP   3 1.00       0.000000000000
      0.7868272350D+01 -0.1193324198D+00  0.6899906659D-01
      0.1881288540D+01 -0.1608541517D+00  0.3164239610D+00
      0.5442492580D+00  0.1143456438D+01  0.7443082909D+00
 SP   1 1.00       0.000000000000
      0.1687144782D+00  0.1000000000D+01  0.1000000000D+01
 SP   1 1.00       0.000000000000
      0.4380000000D-01  0.1000000000D+01  0.1000000000D+01
 D   1 1.00       0.000000000000
      0.8000000000D+00  0.1000000000D+01
 ****
      3 0
 S   3 1.00       0.000000000000
      0.1873113696D+02  0.3349460434D-01
      0.2825394365D+01  0.2347269535D+00
      0.6401216923D+00  0.8137573261D+00
 S   1 1.00       0.000000000000
      0.1612777588D+00  0.1000000000D+01
 P   1 1.00       0.000000000000
      0.1100000000D+01  0.1000000000D+01
 ****
      4 0
 S   3 1.00       0.000000000000
      0.1873113696D+02  0.3349460434D-01
      0.2825394365D+01  0.2347269535D+00
      0.6401216923D+00  0.8137573261D+00
 S   1 1.00       0.000000000000
      0.1612777588D+00  0.1000000000D+01
 P   1 1.00       0.000000000000
      0.1100000000D+01  0.1000000000D+01
 ****
      5 0
 S   3 1.00       0.000000000000
      0.1873113696D+02  0.3349460434D-01
      0.2825394365D+01  0.2347269535D+00
      0.6401216923D+00  0.8137573261D+00
 S   1 1.00       0.000000000000
      0.1612777588D+00  0.1000000000D+01
 P   1 1.00       0.000000000000
      0.1100000000D+01  0.1000000000D+01
 ****
      6 0
 S   3 1.00       0.000000000000
      0.1873113696D+02  0.3349460434D-01
      0.2825394365D+01  0.2347269535D+00
      0.6401216923D+00  0.8137573261D+00
 S   1 1.00       0.000000000000
      0.1612777588D+00  0.1000000000D+01
 P   1 1.00       0.000000000000
      0.1100000000D+01  0.1000000000D+01
 ****
      7 0
 S   3 1.00       0.000000000000
      0.1873113696D+02  0.3349460434D-01
      0.2825394365D+01  0.2347269535D+00
      0.6401216923D+00  0.8137573261D+00
 S   1 1.00       0.000000000000
      0.1612777588D+00  0.1000000000D+01
 P   1 1.00       0.000000000000
      0.1100000000D+01  0.1000000000D+01
 ****
      8 0
 S   3 1.00       0.000000000000
      0.1873113696D+02  0.3349460434D-01
      0.2825394365D+01  0.2347269535D+00
      0.6401216923D+00  0.8137573261D+00
 S   1 1.00       0.000000000000
      0.1612777588D+00  0.1000000000D+01
 P   1 1.00       0.000000000000
      0.1100000000D+01  0.1000000000D+01
 ****

 There are    23 symmetry adapted basis functions of AG  symmetry.
 There are    11 symmetry adapted basis functions of BG  symmetry.
 There are    11 symmetry adapted basis functions of AU  symmetry.
 There are    23 symmetry adapted basis functions of BU  symmetry.
 Integral buffers will be    131072 words long.
 Raffenetti 2 integral format.
 Two-electron integral symmetry is turned on.
    68 basis functions,   106 primitive gaussians,    68 cartesian basis functions
     9 alpha electrons        9 beta electrons
       nuclear repulsion energy        42.5160254972 Hartrees.
 IExCor=  402 DFT=T Ex+Corr=B3LYP ExCW=0 ScaHFX=  0.200000
 ScaDFX=  0.800000  0.720000  1.000000  0.810000 ScalE2=  1.000000  1.000000
 IRadAn=      0 IRanWt=     -1 IRanGd=            0 ICorTp=0
 NAtoms=    8 NActive=    8 NUniq=    2 SFac= 3.00D+00 NAtFMM=   80 NAOKFM=F Big=F
 Leave Link  301 at Tue Mar 26 18:38:29 2024, MaxMem=   13107200 cpu:       0.0
 (Enter /programs/64bit/g09/g09-gfortran/bin/l302.exe)
 NPDir=0 NMtPBC=     1 NCelOv=     1 NCel=       1 NClECP=     1 NCelD=      1
         NCelK=      1 NCelE2=     1 NClLst=     1 CellRange=     0.0.
 One-electron integrals computed using PRISM.
 One-electron integral symmetry used in STVInt
 NBasis=    68 RedAO= T  NBF=    23    11    11    23
 NBsUse=    68 1.00D-06 NBFU=    23    11    11    23
 Precomputing XC quadrature grid using
 IXCGrd= 2 IRadAn=           0 IRanWt=          -1 IRanGd=           0 AccXCQ= 1.00D-10.
 NRdTot=     510 NPtTot=       65100 NUsed=       68787 NTot=       68819
 NSgBfM=    68    68    68    68    68 NAtAll=     8     8.
 Leave Link  302 at Tue Mar 26 18:38:29 2024, MaxMem=   13107200 cpu:       0.0
 (Enter /programs/64bit/g09/g09-gfortran/bin/l303.exe)
 DipDrv:  MaxL=1.
 Leave Link  303 at Tue Mar 26 18:38:29 2024, MaxMem=   13107200 cpu:       0.0
 (Enter /programs/64bit/g09/g09-gfortran/bin/l401.exe)
 Harris functional with IExCor=  402 diagonalized for initial guess.
 ExpMin= 4.38D-02 ExpMax= 3.05D+03 ExpMxC= 4.57D+02 IAcc=2 IRadAn=         0 AccDes= 0.00D+00
 HarFok:  IExCor=  402 AccDes= 0.00D+00 IRadAn=         0 IDoV= 1
 ScaDFX=  1.000000  1.000000  1.000000  1.000000
 FoFCou: FMM=F IPFlag=           0 FMFlag=      100000 FMFlg1=           0
         NFxFlg=           0 DoJE=T BraDBF=F KetDBF=T FulRan=T
         Omega=  0.000000  0.000000  1.000000  0.000000  0.000000 ICntrl=     500 IOpCl=  0
         NMat0=    1 NMatS0=    1 NMatT0=    0 NMatD0=    1 NMtDS0=    0 NMtDT0=    0
         I1Cent=           4 NGrid=           0.
 Petite list used in FoFCou.
 Harris En= -79.8977107247431    
 Initial guess orbital symmetries:
       Occupied  (A1G) (A2U) (A1G) (A2U) (EU) (EU) (A1G) (EG) (EG)
       Virtual   (A1G) (A2U) (EU) (EU) (A1G) (EG) (EG) (A2U) (EG)
                 (EG) (EU) (EU) (A2U) (A1G) (A2U) (A1G) (EU) (EU)
                 (EG) (EG) (A2U) (EU) (EU) (EG) (EG) (A1G) (A2U)
                 (A1G) (EU) (EU) (A2U) (EG) (EG) (A1G) (A1U) (A2G)
                 (EG) (EG) (EU) (EU) (EU) (EU) (A2U) (EG) (EG)
                 (A1G) (A2U) (EU) (EU) (EG) (EG) (A1G) (A2U) (EG)
                 (EG) (EU) (EU) (A1G) (A2U)
 The electronic state of the initial guess is 1-A1G.
 Leave Link  401 at Tue Mar 26 18:38:29 2024, MaxMem=   13107200 cpu:       0.1
 (Enter /programs/64bit/g09/g09-gfortran/bin/l502.exe)
 Closed shell SCF:
 Requested convergence on RMS density matrix=1.00D-08 within 128 cycles.
 Requested convergence on MAX density matrix=1.00D-06.
 Requested convergence on             energy=1.00D-06.
 No special actions if energy rises.
 Using DIIS extrapolation, IDIIS=  1040.
 Integral symmetry usage will be decided dynamically.
        68702 words used for storage of precomputed grid.
 Keep R1 ints in memory in canonical form, NReq=3743695.
 IEnd=      102160 IEndB=      102160 NGot=    13107200 MDV=    10273314
 LenX=    10273314 LenY=    10268249
 Symmetry not used in FoFDir.
 MinBra= 0 MaxBra= 2 Meth= 1.
 IRaf=       0 NMat=   1 IRICut=       1 DoRegI=T DoRafI=F ISym2E= 0 JSym2E=0.

 Cycle   1  Pass 1  IDiag  1:
 E= -79.7029251256247    
 DIIS: error= 5.46D-02 at cycle   1 NSaved=   1.
 NSaved= 1 IEnMin= 1 EnMin= -79.7029251256247     IErMin= 1 ErrMin= 5.46D-02
 ErrMax= 5.46D-02 EMaxC= 1.00D-01 BMatC= 1.21D-01 BMatP= 1.21D-01
 IDIUse=3 WtCom= 4.54D-01 WtEn= 5.46D-01
 Coeff-Com:  0.100D+01
 Coeff-En:   0.100D+01
 Coeff:      0.100D+01
 Gap=     0.277 Goal=   None    Shift=    0.000
 GapD=    0.277 DampG=1.000 DampE=0.500 DampFc=0.5000 IDamp=-1.
 Damping current iteration by 5.00D-01
 RMSDP=9.93D-03 MaxDP=1.43D-01              OVMax= 2.08D-01

 Cycle   2  Pass 1  IDiag  1:
 E= -79.7586321006471     Delta-E=       -0.055706975022 Rises=F Damp=T
 DIIS: error= 1.09D-02 at cycle   2 NSaved=   2.
 NSaved= 2 IEnMin= 2 EnMin= -79.7586321006471     IErMin= 2 ErrMin= 1.09D-02
 ErrMax= 1.09D-02 EMaxC= 1.00D-01 BMatC= 4.90D-03 BMatP= 1.21D-01
 IDIUse=3 WtCom= 8.91D-01 WtEn= 1.09D-01
 Coeff-Com:  0.117D+00 0.883D+00
 Coeff-En:   0.201D+00 0.799D+00
 Coeff:      0.126D+00 0.874D+00
 Gap=     0.352 Goal=   None    Shift=    0.000
 RMSDP=1.36D-03 MaxDP=1.13D-02 DE=-5.57D-02 OVMax= 1.30D-01

 Cycle   3  Pass 1  IDiag  1:
 E= -79.8395478793860     Delta-E=       -0.080915778739 Rises=F Damp=F
 DIIS: error= 1.76D-03 at cycle   3 NSaved=   3.
 NSaved= 3 IEnMin= 3 EnMin= -79.8395478793860     IErMin= 3 ErrMin= 1.76D-03
 ErrMax= 1.76D-03 EMaxC= 1.00D-01 BMatC= 1.35D-04 BMatP= 4.90D-03
 IDIUse=3 WtCom= 9.82D-01 WtEn= 1.76D-02
 Coeff-Com:  0.744D-02 0.917D-01 0.901D+00
 Coeff-En:   0.000D+00 0.000D+00 0.100D+01
 Coeff:      0.731D-02 0.901D-01 0.903D+00
 Gap=     0.360 Goal=   None    Shift=    0.000
 RMSDP=1.89D-04 MaxDP=2.09D-03 DE=-8.09D-02 OVMax= 4.35D-03

 Cycle   4  Pass 1  IDiag  1:
 E= -79.8396617926518     Delta-E=       -0.000113913266 Rises=F Damp=F
 DIIS: error= 5.34D-04 at cycle   4 NSaved=   4.
 NSaved= 4 IEnMin= 4 EnMin= -79.8396617926518     IErMin= 4 ErrMin= 5.34D-04
 ErrMax= 5.34D-04 EMaxC= 1.00D-01 BMatC= 9.94D-06 BMatP= 1.35D-04
 IDIUse=3 WtCom= 9.95D-01 WtEn= 5.34D-03
 Coeff-Com: -0.602D-03-0.594D-02 0.202D+00 0.804D+00
 Coeff-En:   0.000D+00 0.000D+00 0.000D+00 0.100D+01
 Coeff:     -0.599D-03-0.591D-02 0.201D+00 0.805D+00
 Gap=     0.360 Goal=   None    Shift=    0.000
 RMSDP=4.29D-05 MaxDP=4.02D-04 DE=-1.14D-04 OVMax= 1.19D-03

 Cycle   5  Pass 1  IDiag  1:
 E= -79.8396711431709     Delta-E=       -0.000009350519 Rises=F Damp=F
 DIIS: error= 2.47D-05 at cycle   5 NSaved=   5.
 NSaved= 5 IEnMin= 5 EnMin= -79.8396711431709     IErMin= 5 ErrMin= 2.47D-05
 ErrMax= 2.47D-05 EMaxC= 1.00D-01 BMatC= 2.83D-08 BMatP= 9.94D-06
 IDIUse=1 WtCom= 1.00D+00 WtEn= 0.00D+00
 Coeff-Com:  0.421D-03-0.451D-03-0.754D-02-0.149D-01 0.102D+01
 Coeff:      0.421D-03-0.451D-03-0.754D-02-0.149D-01 0.102D+01
 Gap=     0.360 Goal=   None    Shift=    0.000
 RMSDP=2.50D-06 MaxDP=3.53D-05 DE=-9.35D-06 OVMax= 8.85D-05

 Cycle   6  Pass 1  IDiag  1:
 E= -79.8396711767695     Delta-E=       -0.000000033599 Rises=F Damp=F
 DIIS: error= 9.30D-07 at cycle   6 NSaved=   6.
 NSaved= 6 IEnMin= 6 EnMin= -79.8396711767695     IErMin= 6 ErrMin= 9.30D-07
 ErrMax= 9.30D-07 EMaxC= 1.00D-01 BMatC= 2.91D-11 BMatP= 2.83D-08
 IDIUse=1 WtCom= 1.00D+00 WtEn= 0.00D+00
 Coeff-Com: -0.163D-04 0.506D-05-0.572D-03-0.202D-02-0.755D-02 0.101D+01
 Coeff:     -0.163D-04 0.506D-05-0.572D-03-0.202D-02-0.755D-02 0.101D+01
 Gap=     0.360 Goal=   None    Shift=    0.000
 RMSDP=1.53D-07 MaxDP=1.61D-06 DE=-3.36D-08 OVMax= 2.63D-06

 Cycle   7  Pass 1  IDiag  1:
 E= -79.8396711768186     Delta-E=       -0.000000000049 Rises=F Damp=F
 DIIS: error= 5.86D-08 at cycle   7 NSaved=   7.
 NSaved= 7 IEnMin= 7 EnMin= -79.8396711768186     IErMin= 7 ErrMin= 5.86D-08
 ErrMax= 5.86D-08 EMaxC= 1.00D-01 BMatC= 9.82D-14 BMatP= 2.91D-11
 IDIUse=1 WtCom= 1.00D+00 WtEn= 0.00D+00
 Coeff-Com: -0.238D-07 0.103D-05 0.466D-04 0.657D-04-0.251D-02-0.420D-01
 Coeff-Com:  0.104D+01
 Coeff:     -0.238D-07 0.103D-05 0.466D-04 0.657D-04-0.251D-02-0.420D-01
 Coeff:      0.104D+01
 Gap=     0.360 Goal=   None    Shift=    0.000
 RMSDP=7.60D-09 MaxDP=8.78D-08 DE=-4.92D-11 OVMax= 2.41D-07

 SCF Done:  E(RB3LYP) =  -79.8396711768     A.U. after    7 cycles
             Convg  =    0.7601D-08             -V/T =  2.0106
 KE= 7.900497572872D+01 PE=-2.687923647722D+02 EE= 6.743169236954D+01
 Leave Link  502 at Tue Mar 26 18:38:30 2024, MaxMem=   13107200 cpu:       0.4
 (Enter /programs/64bit/g09/g09-gfortran/bin/l601.exe)
 Copying SCF densities to generalized density rwf, IOpCl= 0 IROHF=0.

 **********************************************************************

            Population analysis using the SCF density.

 **********************************************************************

 Orbital symmetries:
       Occupied  (A1G) (A2U) (A1G) (A2U) (EU) (EU) (A1G) (EG) (EG)
       Virtual   (A1G) (A2U) (EU) (EU) (A1G) (EG) (EG) (A2U) (EG)
                 (EG) (EU) (EU) (A2U) (A1G) (A2U) (A1G) (EU) (EU)
                 (EG) (EG) (A2U) (EU) (EU) (EG) (EG) (A1G) (A2U)
                 (A1G) (EU) (EU) (A2U) (EG) (EG) (A1G) (A1U) (A2G)
                 (EG) (EG) (EU) (EU) (EU) (EU) (A2U) (EG) (EG)
                 (A1G) (A2U) (EU) (EU) (EG) (EG) (A1G) (A2U) (EG)
                 (EG) (EU) (EU) (A1G) (A2U)
 The electronic state is 1-A1G.
 Alpha  occ. eigenvalues --  -10.17638 -10.17612  -0.76062  -0.60838  -0.44161
 Alpha  occ. eigenvalues --   -0.44161  -0.36434  -0.34239  -0.34239
 Alpha virt. eigenvalues --    0.01719   0.03270   0.05164   0.05164   0.07873
 Alpha virt. eigenvalues --    0.09004   0.09004   0.14276   0.18910   0.18910
 Alpha virt. eigenvalues --    0.20232   0.20232   0.26163   0.29238   0.33089
 Alpha virt. eigenvalues --    0.60692   0.64913   0.64913   0.66352   0.66352
 Alpha virt. eigenvalues --    0.71103   0.91162   0.91162   0.97323   0.97323
 Alpha virt. eigenvalues --    1.00052   1.09366   1.10974   1.32005   1.32005
 Alpha virt. eigenvalues --    1.47128   1.70415   1.70415   1.94219   2.04121
 Alpha virt. eigenvalues --    2.04210   2.07408   2.07408   2.08654   2.08654
 Alpha virt. eigenvalues --    2.29410   2.29410   2.37495   2.49534   2.49534
 Alpha virt. eigenvalues --    2.66524   2.73304   2.79666   2.79666   2.91429
 Alpha virt. eigenvalues --    2.91429   3.20963   3.26289   3.35635   3.35635
 Alpha virt. eigenvalues --    3.52245   3.52245   4.33890   4.59199
     Molecular Orbital Coefficients:
                           1         2         3         4         5
                       (A1G)--O  (A2U)--O  (A1G)--O  (A2U)--O   (EU)--O
     Eigenvalues --   -10.17638 -10.17612  -0.76062  -0.60838  -0.44161
   1 1   C  1S          0.70203   0.70222  -0.14992  -0.13060   0.00000
   2        2S          0.03512   0.03552   0.28604   0.25880   0.00000
   3        2PX         0.00000   0.00000   0.00000   0.00000   0.31687
   4        2PY         0.00000   0.00000   0.00000   0.00000   0.00000
   5        2PZ         0.00007  -0.00014  -0.07078   0.12795   0.00000
   6        3S         -0.00927  -0.01656   0.23770   0.27800   0.00000
   7        3PX         0.00000   0.00000   0.00000   0.00000   0.13868
   8        3PY         0.00000  -0.00000   0.00000  -0.00000   0.00000
   9        3PZ        -0.00076   0.00299  -0.01037   0.02913   0.00000
  10        4S         -0.00051  -0.00109   0.00767   0.04825   0.00000
  11        4PX         0.00000   0.00000   0.00000   0.00000   0.01747
  12        4PY         0.00000   0.00000   0.00000  -0.00000   0.00000
  13        4PZ        -0.00012  -0.00005  -0.00048  -0.00622   0.00000
  14        5XX        -0.00641  -0.00615  -0.00947  -0.00157   0.00000
  15        5YY        -0.00641  -0.00615  -0.00947  -0.00157   0.00000
  16        5ZZ        -0.00674  -0.00615   0.00248  -0.01855   0.00000
  17        5XY         0.00000   0.00000   0.00000   0.00000  -0.01119
  18        5XZ         0.00000   0.00000   0.00000   0.00000  -0.00098
  19        5YZ         0.00000   0.00000   0.00000  -0.00000   0.00000
  20 2   C  1S          0.70203  -0.70222  -0.14992   0.13060   0.00000
  21        2S          0.03512  -0.03552   0.28604  -0.25880   0.00000
  22        2PX         0.00000   0.00000   0.00000   0.00000   0.31687
  23        2PY        -0.00000   0.00000  -0.00000   0.00000   0.00000
  24        2PZ        -0.00007  -0.00014   0.07078   0.12795   0.00000
  25        3S         -0.00927   0.01656   0.23770  -0.27800   0.00000
  26        3PX         0.00000   0.00000   0.00000   0.00000   0.13868
  27        3PY        -0.00000  -0.00000  -0.00000  -0.00000   0.00000
  28        3PZ         0.00076   0.00299   0.01037   0.02913   0.00000
  29        4S         -0.00051   0.00109   0.00767  -0.04825   0.00000
  30        4PX         0.00000   0.00000   0.00000   0.00000   0.01747
  31        4PY        -0.00000   0.00000  -0.00000  -0.00000   0.00000
  32        4PZ         0.00012  -0.00005   0.00048  -0.00622   0.00000
  33        5XX        -0.00641   0.00615  -0.00947   0.00157   0.00000
  34        5YY        -0.00641   0.00615  -0.00947   0.00157   0.00000
  35        5ZZ        -0.00674   0.00615   0.00248   0.01855   0.00000
  36        5XY         0.00000   0.00000   0.00000   0.00000   0.01119
  37        5XZ         0.00000   0.00000   0.00000   0.00000   0.00098
  38        5YZ         0.00000  -0.00000   0.00000   0.00000   0.00000
  39 3   H  1S         -0.00024  -0.00002   0.08610   0.11997   0.00000
  40        2S          0.00235   0.00216   0.01477   0.04537   0.00000
  41        3PX         0.00000   0.00000   0.00000   0.00000   0.00559
  42        3PY         0.00009   0.00016  -0.00807  -0.00932   0.00000
  43        3PZ        -0.00003   0.00004  -0.00384  -0.00147   0.00000
  44 4   H  1S         -0.00024   0.00002   0.08610  -0.11997   0.00000
  45        2S          0.00235  -0.00216   0.01477  -0.04537   0.00000
  46        3PX         0.00000   0.00000   0.00000   0.00000   0.00559
  47        3PY        -0.00009   0.00016   0.00807  -0.00932   0.00000
  48        3PZ         0.00003   0.00004   0.00384  -0.00147   0.00000
  49 5   H  1S         -0.00024  -0.00002   0.08610   0.11997   0.15539
  50        2S          0.00235   0.00216   0.01477   0.04537   0.10444
  51        3PX         0.00008   0.00014  -0.00699  -0.00807  -0.00128
  52        3PY        -0.00005  -0.00008   0.00403   0.00466   0.00397
  53        3PZ        -0.00003   0.00004  -0.00384  -0.00147  -0.00411
  54 6   H  1S         -0.00024   0.00002   0.08610  -0.11997   0.15539
  55        2S          0.00235  -0.00216   0.01477  -0.04537   0.10444
  56        3PX         0.00008  -0.00014  -0.00699   0.00807  -0.00128
  57        3PY         0.00005  -0.00008  -0.00403   0.00466  -0.00397
  58        3PZ         0.00003   0.00004   0.00384  -0.00147   0.00411
  59 7   H  1S         -0.00024  -0.00002   0.08610   0.11997  -0.15539
  60        2S          0.00235   0.00216   0.01477   0.04537  -0.10444
  61        3PX        -0.00008  -0.00014   0.00699   0.00807  -0.00128
  62        3PY        -0.00005  -0.00008   0.00403   0.00466  -0.00397
  63        3PZ        -0.00003   0.00004  -0.00384  -0.00147   0.00411
  64 8   H  1S         -0.00024   0.00002   0.08610  -0.11997  -0.15539
  65        2S          0.00235  -0.00216   0.01477  -0.04537  -0.10444
  66        3PX        -0.00008   0.00014   0.00699  -0.00807  -0.00128
  67        3PY         0.00005  -0.00008  -0.00403   0.00466   0.00397
  68        3PZ         0.00003   0.00004   0.00384  -0.00147  -0.00411
                           6         7         8         9        10
                        (EU)--O  (A1G)--O   (EG)--O   (EG)--O  (A1G)--V
     Eigenvalues --    -0.44161  -0.36434  -0.34239  -0.34239   0.01719
   1 1   C  1S         -0.00000   0.01486   0.00000   0.00000   0.05965
   2        2S         -0.00000  -0.03819   0.00000  -0.00000  -0.10946
   3        2PX         0.00000   0.00000   0.31252   0.00000   0.00000
   4        2PY         0.31687  -0.00000   0.00000   0.31252   0.00000
   5        2PZ         0.00000   0.41622   0.00000   0.00000  -0.11102
   6        3S         -0.00000  -0.03630   0.00000   0.00000  -0.51707
   7        3PX         0.00000   0.00000   0.14263   0.00000   0.00000
   8        3PY         0.13868  -0.00000   0.00000   0.14263   0.00000
   9        3PZ        -0.00000   0.17940   0.00000   0.00000  -0.11481
  10        4S         -0.00000   0.02574   0.00000   0.00000   0.87089
  11        4PX         0.00000   0.00000   0.04856   0.00000   0.00000
  12        4PY         0.01747   0.00000   0.00000   0.04856   0.00000
  13        4PZ         0.00000   0.04035   0.00000   0.00000   0.10025
  14        5XX        -0.00969   0.01064   0.00000  -0.01401   0.01150
  15        5YY         0.00969   0.01064   0.00000   0.01401   0.01150
  16        5ZZ         0.00000  -0.01468   0.00000   0.00000   0.00122
  17        5XY         0.00000   0.00000  -0.01617   0.00000   0.00000
  18        5XZ         0.00000   0.00000   0.01888   0.00000   0.00000
  19        5YZ        -0.00098  -0.00000   0.00000   0.01888   0.00000
  20 2   C  1S          0.00000   0.01486   0.00000   0.00000   0.05965
  21        2S          0.00000  -0.03819   0.00000  -0.00000  -0.10946
  22        2PX         0.00000   0.00000  -0.31252   0.00000   0.00000
  23        2PY         0.31687   0.00000   0.00000  -0.31252  -0.00000
  24        2PZ         0.00000  -0.41622   0.00000  -0.00000   0.11102
  25        3S          0.00000  -0.03630   0.00000   0.00000  -0.51707
  26        3PX         0.00000   0.00000  -0.14263   0.00000   0.00000
  27        3PY         0.13868   0.00000   0.00000  -0.14263  -0.00000
  28        3PZ        -0.00000  -0.17940   0.00000  -0.00000   0.11481
  29        4S          0.00000   0.02574   0.00000   0.00000   0.87089
  30        4PX         0.00000   0.00000  -0.04856   0.00000   0.00000
  31        4PY         0.01747  -0.00000   0.00000  -0.04856  -0.00000
  32        4PZ         0.00000  -0.04035   0.00000  -0.00000  -0.10025
  33        5XX         0.00969   0.01064   0.00000  -0.01401   0.01150
  34        5YY        -0.00969   0.01064   0.00000   0.01401   0.01150
  35        5ZZ        -0.00000  -0.01468   0.00000   0.00000   0.00122
  36        5XY         0.00000   0.00000  -0.01617   0.00000   0.00000
  37        5XZ         0.00000   0.00000   0.01888   0.00000   0.00000
  38        5YZ         0.00098  -0.00000   0.00000   0.01888   0.00000
  39 3   H  1S          0.17943   0.08315   0.00000   0.21949   0.00929
  40        2S          0.12059   0.07570   0.00000   0.20728  -0.07740
  41        3PX         0.00000   0.00000   0.00604   0.00000   0.00000
  42        3PY        -0.00357  -0.00372   0.00000  -0.00392   0.01124
  43        3PZ        -0.00474   0.00666   0.00000  -0.00246   0.00014
  44 4   H  1S         -0.17943   0.08315   0.00000   0.21949   0.00929
  45        2S         -0.12059   0.07570   0.00000   0.20728  -0.07740
  46        3PX         0.00000   0.00000  -0.00604   0.00000   0.00000
  47        3PY        -0.00357   0.00372   0.00000   0.00392  -0.01124
  48        3PZ        -0.00474  -0.00666   0.00000   0.00246  -0.00014
  49 5   H  1S         -0.08971   0.08315   0.19009  -0.10975   0.00929
  50        2S         -0.06030   0.07570   0.17951  -0.10364  -0.07740
  51        3PX         0.00397  -0.00323  -0.00143   0.00431   0.00973
  52        3PY         0.00330   0.00186   0.00431   0.00355  -0.00562
  53        3PZ         0.00237   0.00666  -0.00213   0.00123   0.00014
  54 6   H  1S          0.08971   0.08315  -0.19009  -0.10975   0.00929
  55        2S          0.06030   0.07570  -0.17951  -0.10364  -0.07740
  56        3PX        -0.00397  -0.00323   0.00143   0.00431   0.00973
  57        3PY         0.00330  -0.00186   0.00431  -0.00355   0.00562
  58        3PZ         0.00237  -0.00666  -0.00213  -0.00123  -0.00014
  59 7   H  1S         -0.08971   0.08315  -0.19009  -0.10975   0.00929
  60        2S         -0.06030   0.07570  -0.17951  -0.10364  -0.07740
  61        3PX        -0.00397   0.00323  -0.00143  -0.00431  -0.00973
  62        3PY         0.00330   0.00186  -0.00431   0.00355  -0.00562
  63        3PZ         0.00237   0.00666   0.00213   0.00123   0.00014
  64 8   H  1S          0.08971   0.08315   0.19009  -0.10975   0.00929
  65        2S          0.06030   0.07570   0.17951  -0.10364  -0.07740
  66        3PX         0.00397   0.00323   0.00143  -0.00431  -0.00973
  67        3PY         0.00330  -0.00186  -0.00431  -0.00355   0.00562
  68        3PZ         0.00237  -0.00666   0.00213  -0.00123  -0.00014
                          11        12        13        14        15
                       (A2U)--V   (EU)--V   (EU)--V  (A1G)--V   (EG)--V
     Eigenvalues --     0.03270   0.05164   0.05164   0.07873   0.09004
   1 1   C  1S         -0.05215   0.00000   0.00000  -0.02804   0.00000
   2        2S          0.11570   0.00000   0.00000   0.04387   0.00000
   3        2PX         0.00000   0.00000  -0.16216   0.00000  -0.11799
   4        2PY        -0.00000  -0.16216   0.00000   0.00000   0.00000
   5        2PZ         0.00659  -0.00000   0.00000  -0.06513   0.00000
   6        3S          0.37465  -0.00000   0.00000   0.35704   0.00000
   7        3PX         0.00000   0.00000  -0.22702   0.00000  -0.03615
   8        3PY        -0.00000  -0.22702   0.00000  -0.00000   0.00000
   9        3PZ         0.02622   0.00000   0.00000  -0.04594   0.00000
  10        4S          5.33763  -0.00000   0.00000   0.14961   0.00000
  11        4PX         0.00000   0.00000   0.61439   0.00000   2.01724
  12        4PY        -0.00000   0.61439   0.00000  -0.00000   0.00000
  13        4PZ        -2.32467   0.00000   0.00000   1.36094   0.00000
  14        5XX         0.00139   0.00338   0.00000  -0.01453   0.00000
  15        5YY         0.00139  -0.00338   0.00000  -0.01453   0.00000
  16        5ZZ        -0.01547  -0.00000   0.00000   0.01380   0.00000
  17        5XY         0.00000   0.00000   0.00390   0.00000   0.00722
  18        5XZ         0.00000   0.00000   0.00570   0.00000  -0.00070
  19        5YZ        -0.00000   0.00570   0.00000  -0.00000   0.00000
  20 2   C  1S          0.05215  -0.00000   0.00000  -0.02804   0.00000
  21        2S         -0.11570  -0.00000   0.00000   0.04387   0.00000
  22        2PX         0.00000   0.00000  -0.16216   0.00000   0.11799
  23        2PY        -0.00000  -0.16216   0.00000  -0.00000   0.00000
  24        2PZ         0.00659  -0.00000   0.00000   0.06513   0.00000
  25        3S         -0.37465   0.00000   0.00000   0.35704   0.00000
  26        3PX         0.00000   0.00000  -0.22702   0.00000   0.03615
  27        3PY        -0.00000  -0.22702   0.00000   0.00000   0.00000
  28        3PZ         0.02622   0.00000   0.00000   0.04594   0.00000
  29        4S         -5.33763   0.00000   0.00000   0.14961   0.00000
  30        4PX         0.00000   0.00000   0.61439   0.00000  -2.01724
  31        4PY        -0.00000   0.61439   0.00000   0.00000   0.00000
  32        4PZ        -2.32467   0.00000   0.00000  -1.36094   0.00000
  33        5XX        -0.00139  -0.00338   0.00000  -0.01453   0.00000
  34        5YY        -0.00139   0.00338   0.00000  -0.01453   0.00000
  35        5ZZ         0.01547   0.00000   0.00000   0.01380   0.00000
  36        5XY         0.00000   0.00000  -0.00390   0.00000   0.00722
  37        5XZ         0.00000   0.00000  -0.00570   0.00000  -0.00070
  38        5YZ         0.00000  -0.00570   0.00000  -0.00000   0.00000
  39 3   H  1S          0.00588  -0.00510   0.00000  -0.03190   0.00000
  40        2S         -0.02104  -0.02633   0.00000  -0.02958   0.00000
  41        3PX         0.00000   0.00000   0.00194   0.00000   0.00263
  42        3PY        -0.00436   0.00766   0.00000  -0.00497   0.00000
  43        3PZ        -0.00663   0.00324   0.00000   0.00524   0.00000
  44 4   H  1S         -0.00588   0.00510   0.00000  -0.03190   0.00000
  45        2S          0.02104   0.02633   0.00000  -0.02958   0.00000
  46        3PX         0.00000   0.00000   0.00194   0.00000  -0.00263
  47        3PY        -0.00436   0.00766   0.00000   0.00497   0.00000
  48        3PZ        -0.00663   0.00324   0.00000  -0.00524   0.00000
  49 5   H  1S          0.00588   0.00255  -0.00442  -0.03190  -0.02803
  50        2S         -0.02104   0.01317  -0.02281  -0.02958  -0.21568
  51        3PX        -0.00378  -0.00247   0.00623  -0.00431   0.00576
  52        3PY         0.00218   0.00337  -0.00247   0.00249  -0.00181
  53        3PZ        -0.00663  -0.00162   0.00281   0.00524   0.00629
  54 6   H  1S         -0.00588  -0.00255  -0.00442  -0.03190   0.02803
  55        2S          0.02104  -0.01317  -0.02281  -0.02958   0.21568
  56        3PX         0.00378   0.00247   0.00623  -0.00431  -0.00576
  57        3PY         0.00218   0.00337   0.00247  -0.00249  -0.00181
  58        3PZ        -0.00663  -0.00162  -0.00281  -0.00524   0.00629
  59 7   H  1S          0.00588   0.00255   0.00442  -0.03190   0.02803
  60        2S         -0.02104   0.01317   0.02281  -0.02958   0.21568
  61        3PX         0.00378   0.00247   0.00623   0.00431   0.00576
  62        3PY         0.00218   0.00337   0.00247   0.00249   0.00181
  63        3PZ        -0.00663  -0.00162  -0.00281   0.00524  -0.00629
  64 8   H  1S         -0.00588  -0.00255   0.00442  -0.03190  -0.02803
  65        2S          0.02104  -0.01317   0.02281  -0.02958  -0.21568
  66        3PX        -0.00378  -0.00247   0.00623   0.00431  -0.00576
  67        3PY         0.00218   0.00337  -0.00247  -0.00249   0.00181
  68        3PZ        -0.00663  -0.00162   0.00281  -0.00524  -0.00629
                          16        17        18        19        20
                        (EG)--V  (A2U)--V   (EG)--V   (EG)--V   (EU)--V
     Eigenvalues --     0.09004   0.14276   0.18910   0.18910   0.20232
   1 1   C  1S         -0.00000   0.04340   0.00000   0.00000   0.00000
   2        2S          0.00000  -0.10251   0.00000  -0.00000   0.00000
   3        2PX         0.00000   0.00000   0.23584   0.00000  -0.22120
   4        2PY        -0.11799  -0.00000   0.00000  -0.23584   0.00000
   5        2PZ        -0.00000  -0.08912   0.00000  -0.00000   0.00000
   6        3S         -0.00000  -0.25381   0.00000  -0.00000   0.00000
   7        3PX         0.00000   0.00000   1.34364   0.00000  -0.80258
   8        3PY        -0.03615  -0.00000   0.00000  -1.34364   0.00000
   9        3PZ        -0.00000  -0.39794   0.00000  -0.00000   0.00000
  10        4S         -0.00000  27.30976   0.00000  -0.00000   0.00000
  11        4PX         0.00000   0.00000   0.54322   0.00000  -0.37250
  12        4PY         2.01724  -0.00000   0.00000  -0.54322   0.00000
  13        4PZ         0.00000  -8.30358   0.00000  -0.00000   0.00000
  14        5XX         0.00625   0.00824   0.00000  -0.01698   0.00000
  15        5YY        -0.00625   0.00824   0.00000   0.01698   0.00000
  16        5ZZ         0.00000   0.00452   0.00000   0.00000   0.00000
  17        5XY         0.00000   0.00000   0.01960   0.00000  -0.01779
  18        5XZ         0.00000   0.00000   0.00945   0.00000   0.02711
  19        5YZ        -0.00070   0.00000   0.00000  -0.00945   0.00000
  20 2   C  1S         -0.00000  -0.04340   0.00000   0.00000   0.00000
  21        2S          0.00000   0.10251   0.00000  -0.00000   0.00000
  22        2PX         0.00000   0.00000  -0.23584   0.00000  -0.22120
  23        2PY         0.11799  -0.00000   0.00000   0.23584   0.00000
  24        2PZ         0.00000  -0.08912   0.00000   0.00000   0.00000
  25        3S         -0.00000   0.25381   0.00000  -0.00000   0.00000
  26        3PX         0.00000   0.00000  -1.34364   0.00000  -0.80258
  27        3PY         0.03615  -0.00000   0.00000   1.34364   0.00000
  28        3PZ         0.00000  -0.39794   0.00000   0.00000   0.00000
  29        4S         -0.00000 -27.30976   0.00000  -0.00000   0.00000
  30        4PX         0.00000   0.00000  -0.54322   0.00000  -0.37250
  31        4PY        -2.01724  -0.00000   0.00000   0.54322   0.00000
  32        4PZ        -0.00000  -8.30358   0.00000   0.00000   0.00000
  33        5XX         0.00625  -0.00824   0.00000  -0.01698   0.00000
  34        5YY        -0.00625  -0.00824   0.00000   0.01698   0.00000
  35        5ZZ         0.00000  -0.00452   0.00000   0.00000   0.00000
  36        5XY         0.00000   0.00000   0.01960   0.00000   0.01779
  37        5XZ         0.00000   0.00000   0.00945   0.00000  -0.02711
  38        5YZ        -0.00070  -0.00000   0.00000  -0.00945   0.00000
  39 3   H  1S         -0.03237   0.03695   0.00000   0.07879   0.00000
  40        2S         -0.24905  -0.09747   0.00000   1.43447   0.00000
  41        3PX         0.00000   0.00000   0.01285   0.00000  -0.01008
  42        3PY         0.00680   0.00968   0.00000  -0.00018   0.00000
  43        3PZ         0.00727   0.00231   0.00000  -0.00994   0.00000
  44 4   H  1S         -0.03237  -0.03695   0.00000   0.07879   0.00000
  45        2S         -0.24905   0.09747   0.00000   1.43447   0.00000
  46        3PX         0.00000   0.00000  -0.01285   0.00000  -0.01008
  47        3PY        -0.00680   0.00968   0.00000   0.00018   0.00000
  48        3PZ        -0.00727   0.00231   0.00000   0.00994   0.00000
  49 5   H  1S          0.01618   0.03695  -0.06823  -0.03940   0.13741
  50        2S          0.12452  -0.09747  -1.24228  -0.71723   1.19453
  51        3PX        -0.00181   0.00838   0.00335  -0.00549  -0.00342
  52        3PY         0.00367  -0.00484   0.00549  -0.00969  -0.00385
  53        3PZ        -0.00363   0.00231   0.00861   0.00497   0.00807
  54 6   H  1S          0.01618  -0.03695   0.06823  -0.03940   0.13741
  55        2S          0.12452   0.09747   1.24228  -0.71723   1.19453
  56        3PX        -0.00181  -0.00838  -0.00335  -0.00549  -0.00342
  57        3PY        -0.00367  -0.00484   0.00549   0.00969   0.00385
  58        3PZ         0.00363   0.00231   0.00861  -0.00497  -0.00807
  59 7   H  1S          0.01618   0.03695   0.06823  -0.03940  -0.13741
  60        2S          0.12452  -0.09747   1.24228  -0.71723  -1.19453
  61        3PX         0.00181  -0.00838   0.00335   0.00549  -0.00342
  62        3PY         0.00367  -0.00484  -0.00549  -0.00969   0.00385
  63        3PZ        -0.00363   0.00231  -0.00861   0.00497  -0.00807
  64 8   H  1S          0.01618  -0.03695  -0.06823  -0.03940  -0.13741
  65        2S          0.12452   0.09747  -1.24228  -0.71723  -1.19453
  66        3PX         0.00181   0.00838  -0.00335   0.00549  -0.00342
  67        3PY        -0.00367  -0.00484  -0.00549   0.00969  -0.00385
  68        3PZ         0.00363   0.00231  -0.00861  -0.00497   0.00807
                          21        22        23        24        25
                        (EU)--V  (A2U)--V  (A1G)--V  (A2U)--V  (A1G)--V
     Eigenvalues --     0.20232   0.26163   0.29238   0.33089   0.60692
   1 1   C  1S         -0.00000   0.04198  -0.08537  -0.13438   0.01929
   2        2S         -0.00000  -0.06034   0.14974   0.12041   0.01636
   3        2PX         0.00000   0.00000   0.00000   0.00000   0.00000
   4        2PY        -0.22120   0.00000  -0.00000   0.00000  -0.00000
   5        2PZ         0.00000   0.35692   0.12799  -0.05044  -0.61999
   6        3S          0.00000  -0.75175   1.70886   3.04347   0.33366
   7        3PX         0.00000   0.00000   0.00000   0.00000   0.00000
   8        3PY        -0.80258   0.00000  -0.00000   0.00000   0.00000
   9        3PZ         0.00000   1.58138   0.66977  -0.70404   1.06513
  10        4S         -0.00000  13.77088   1.21791  19.06887  -0.15986
  11        4PX         0.00000   0.00000   0.00000   0.00000   0.00000
  12        4PY        -0.37250   0.00000  -0.00000   0.00000  -0.00000
  13        4PZ         0.00000  -4.21151  -0.55678  -5.04730  -0.70920
  14        5XX        -0.01541  -0.01435  -0.00767  -0.00598  -0.02814
  15        5YY         0.01541  -0.01435  -0.00767  -0.00598  -0.02814
  16        5ZZ         0.00000   0.02946   0.01348  -0.01505   0.11253
  17        5XY         0.00000   0.00000   0.00000   0.00000   0.00000
  18        5XZ         0.00000   0.00000   0.00000   0.00000   0.00000
  19        5YZ         0.02711  -0.00000  -0.00000  -0.00000  -0.00000
  20 2   C  1S          0.00000  -0.04198  -0.08537   0.13438   0.01929
  21        2S          0.00000   0.06034   0.14974  -0.12041   0.01636
  22        2PX         0.00000   0.00000   0.00000   0.00000   0.00000
  23        2PY        -0.22120   0.00000   0.00000   0.00000   0.00000
  24        2PZ         0.00000   0.35692  -0.12799  -0.05044   0.61999
  25        3S         -0.00000   0.75175   1.70886  -3.04347   0.33366
  26        3PX         0.00000   0.00000   0.00000   0.00000   0.00000
  27        3PY        -0.80258   0.00000   0.00000   0.00000  -0.00000
  28        3PZ         0.00000   1.58138  -0.66977  -0.70404  -1.06513
  29        4S          0.00000 -13.77088   1.21791 -19.06887  -0.15986
  30        4PX         0.00000   0.00000   0.00000   0.00000   0.00000
  31        4PY        -0.37250   0.00000   0.00000   0.00000   0.00000
  32        4PZ         0.00000  -4.21151   0.55678  -5.04730   0.70920
  33        5XX         0.01541   0.01435  -0.00767   0.00598  -0.02814
  34        5YY        -0.01541   0.01435  -0.00767   0.00598  -0.02814
  35        5ZZ        -0.00000  -0.02946   0.01348   0.01505   0.11253
  36        5XY         0.00000   0.00000   0.00000   0.00000   0.00000
  37        5XZ         0.00000   0.00000   0.00000   0.00000   0.00000
  38        5YZ        -0.02711   0.00000  -0.00000   0.00000  -0.00000
  39 3   H  1S          0.15867  -0.06228  -0.06054  -0.05788  -0.10681
  40        2S          1.37933  -0.62063  -1.41859  -1.38413  -0.03714
  41        3PX         0.00000   0.00000   0.00000   0.00000   0.00000
  42        3PY        -0.00120  -0.00307  -0.00252  -0.00407   0.01015
  43        3PZ         0.00932   0.01239   0.00345  -0.00065   0.02514
  44 4   H  1S         -0.15867   0.06228  -0.06054   0.05788  -0.10681
  45        2S         -1.37933   0.62063  -1.41859   1.38413  -0.03714
  46        3PX         0.00000   0.00000   0.00000   0.00000   0.00000
  47        3PY        -0.00120  -0.00307   0.00252  -0.00407  -0.01015
  48        3PZ         0.00932   0.01239  -0.00345  -0.00065  -0.02514
  49 5   H  1S         -0.07933  -0.06228  -0.06054  -0.05788  -0.10681
  50        2S         -0.68966  -0.62063  -1.41859  -1.38413  -0.03714
  51        3PX        -0.00385  -0.00266  -0.00218  -0.00352   0.00879
  52        3PY        -0.00786   0.00154   0.00126   0.00203  -0.00507
  53        3PZ        -0.00466   0.01239   0.00345  -0.00065   0.02514
  54 6   H  1S          0.07933   0.06228  -0.06054   0.05788  -0.10681
  55        2S          0.68966   0.62063  -1.41859   1.38413  -0.03714
  56        3PX         0.00385   0.00266  -0.00218   0.00352   0.00879
  57        3PY        -0.00786   0.00154  -0.00126   0.00203   0.00507
  58        3PZ        -0.00466   0.01239  -0.00345  -0.00065  -0.02514
  59 7   H  1S         -0.07933  -0.06228  -0.06054  -0.05788  -0.10681
  60        2S         -0.68966  -0.62063  -1.41859  -1.38413  -0.03714
  61        3PX         0.00385   0.00266   0.00218   0.00352  -0.00879
  62        3PY        -0.00786   0.00154   0.00126   0.00203  -0.00507
  63        3PZ        -0.00466   0.01239   0.00345  -0.00065   0.02514
  64 8   H  1S          0.07933   0.06228  -0.06054   0.05788  -0.10681
  65        2S          0.68966   0.62063  -1.41859   1.38413  -0.03714
  66        3PX        -0.00385  -0.00266   0.00218  -0.00352  -0.00879
  67        3PY        -0.00786   0.00154  -0.00126   0.00203   0.00507
  68        3PZ        -0.00466   0.01239  -0.00345  -0.00065  -0.02514
                          26        27        28        29        30
                        (EU)--V   (EU)--V   (EG)--V   (EG)--V  (A2U)--V
     Eigenvalues --     0.64913   0.64913   0.66352   0.66352   0.71103
   1 1   C  1S          0.00000   0.00000   0.00000   0.00000  -0.02674
   2        2S          0.00000  -0.00000   0.00000  -0.00000   0.16702
   3        2PX        -0.61847   0.00000  -0.73352   0.00000   0.00000
   4        2PY         0.00000  -0.61847   0.00000  -0.73352  -0.00000
   5        2PZ         0.00000  -0.00000   0.00000   0.00000  -0.82764
   6        3S          0.00000  -0.00000   0.00000  -0.00000  -1.08431
   7        3PX         0.92729   0.00000   1.74519   0.00000   0.00000
   8        3PY         0.00000   0.92729   0.00000   1.74519   0.00000
   9        3PZ         0.00000   0.00000   0.00000  -0.00000   1.99384
  10        4S          0.00000  -0.00000   0.00000  -0.00000   1.65667
  11        4PX        -0.31203   0.00000  -0.65832   0.00000   0.00000
  12        4PY         0.00000  -0.31203   0.00000  -0.65832   0.00000
  13        4PZ         0.00000   0.00000   0.00000   0.00000  -0.72660
  14        5XX         0.00000   0.03357   0.00000   0.01625   0.03010
  15        5YY         0.00000  -0.03357   0.00000  -0.01625   0.03010
  16        5ZZ         0.00000  -0.00000   0.00000  -0.00000  -0.09187
  17        5XY         0.03877   0.00000   0.01877   0.00000   0.00000
  18        5XZ        -0.03101   0.00000   0.02196   0.00000   0.00000
  19        5YZ         0.00000  -0.03101   0.00000   0.02196   0.00000
  20 2   C  1S          0.00000  -0.00000   0.00000   0.00000   0.02674
  21        2S          0.00000   0.00000   0.00000  -0.00000  -0.16702
  22        2PX        -0.61847   0.00000   0.73352   0.00000   0.00000
  23        2PY         0.00000  -0.61847   0.00000   0.73352  -0.00000
  24        2PZ         0.00000  -0.00000   0.00000  -0.00000  -0.82764
  25        3S          0.00000   0.00000   0.00000  -0.00000   1.08431
  26        3PX         0.92729   0.00000  -1.74519   0.00000   0.00000
  27        3PY         0.00000   0.92729   0.00000  -1.74519   0.00000
  28        3PZ         0.00000   0.00000   0.00000   0.00000   1.99384
  29        4S          0.00000   0.00000   0.00000  -0.00000  -1.65667
  30        4PX        -0.31203   0.00000   0.65832   0.00000   0.00000
  31        4PY         0.00000  -0.31203   0.00000   0.65832   0.00000
  32        4PZ         0.00000   0.00000   0.00000  -0.00000  -0.72660
  33        5XX         0.00000  -0.03357   0.00000   0.01625  -0.03010
  34        5YY         0.00000   0.03357   0.00000  -0.01625  -0.03010
  35        5ZZ         0.00000   0.00000   0.00000  -0.00000   0.09187
  36        5XY        -0.03877   0.00000   0.01877   0.00000   0.00000
  37        5XZ         0.03101   0.00000   0.02196   0.00000   0.00000
  38        5YZ         0.00000   0.03101   0.00000   0.02196  -0.00000
  39 3   H  1S          0.00000  -0.28607   0.00000  -0.07708  -0.07039
  40        2S          0.00000   0.01123   0.00000  -0.47964  -0.23151
  41        3PX         0.01580   0.00000   0.01559   0.00000   0.00000
  42        3PY         0.00000   0.04353   0.00000   0.05099   0.01345
  43        3PZ         0.00000  -0.01281   0.00000   0.05427  -0.01681
  44 4   H  1S          0.00000   0.28607   0.00000  -0.07708   0.07039
  45        2S          0.00000  -0.01123   0.00000  -0.47964   0.23151
  46        3PX         0.01580   0.00000  -0.01559   0.00000   0.00000
  47        3PY         0.00000   0.04353   0.00000  -0.05099   0.01345
  48        3PZ         0.00000  -0.01281   0.00000  -0.05427  -0.01681
  49 5   H  1S         -0.24775   0.14304  -0.06675   0.03854  -0.07039
  50        2S          0.00973  -0.00562  -0.41538   0.23982  -0.23151
  51        3PX         0.03660  -0.01201   0.04214  -0.01533   0.01165
  52        3PY        -0.01201   0.02274  -0.01533   0.02444  -0.00673
  53        3PZ        -0.01110   0.00641   0.04700  -0.02714  -0.01681
  54 6   H  1S         -0.24775  -0.14304   0.06675   0.03854   0.07039
  55        2S          0.00973   0.00562   0.41538   0.23982   0.23151
  56        3PX         0.03660   0.01201  -0.04214  -0.01533  -0.01165
  57        3PY         0.01201   0.02274  -0.01533  -0.02444  -0.00673
  58        3PZ         0.01110   0.00641   0.04700   0.02714  -0.01681
  59 7   H  1S          0.24775   0.14304   0.06675   0.03854  -0.07039
  60        2S         -0.00973  -0.00562   0.41538   0.23982  -0.23151
  61        3PX         0.03660   0.01201   0.04214   0.01533  -0.01165
  62        3PY         0.01201   0.02274   0.01533   0.02444  -0.00673
  63        3PZ         0.01110   0.00641  -0.04700  -0.02714  -0.01681
  64 8   H  1S          0.24775  -0.14304  -0.06675   0.03854   0.07039
  65        2S         -0.00973   0.00562  -0.41538   0.23982   0.23151
  66        3PX         0.03660  -0.01201  -0.04214   0.01533   0.01165
  67        3PY        -0.01201   0.02274   0.01533  -0.02444  -0.00673
  68        3PZ        -0.01110   0.00641  -0.04700   0.02714  -0.01681
                          31        32        33        34        35
                        (EU)--V   (EU)--V   (EG)--V   (EG)--V  (A1G)--V
     Eigenvalues --     0.91162   0.91162   0.97323   0.97323   1.00052
   1 1   C  1S          0.00000   0.00000   0.00000  -0.00000   0.06221
   2        2S          0.00000  -0.00000   0.00000  -0.00000   0.35862
   3        2PX         0.46707   0.00000   0.25475   0.00000   0.00000
   4        2PY         0.00000   0.46707   0.00000   0.25475  -0.00000
   5        2PZ         0.00000  -0.00000   0.00000  -0.00000  -0.29259
   6        3S          0.00000   0.00000   0.00000   0.00000  -0.38691
   7        3PX        -0.97191   0.00000  -0.23199   0.00000   0.00000
   8        3PY         0.00000  -0.97191   0.00000  -0.23199   0.00000
   9        3PZ         0.00000   0.00000   0.00000   0.00000   0.21784
  10        4S          0.00000  -0.00000   0.00000   0.00000   0.54200
  11        4PX        -0.25881   0.00000  -0.73830   0.00000   0.00000
  12        4PY         0.00000  -0.25881   0.00000  -0.73830   0.00000
  13        4PZ         0.00000   0.00000   0.00000  -0.00000  -0.15836
  14        5XX         0.00000   0.11895   0.00000   0.18808   0.09327
  15        5YY         0.00000  -0.11895   0.00000  -0.18808   0.09327
  16        5ZZ         0.00000  -0.00000   0.00000  -0.00000   0.00176
  17        5XY         0.13735   0.00000   0.21717   0.00000   0.00000
  18        5XZ        -0.16881   0.00000  -0.04659   0.00000   0.00000
  19        5YZ         0.00000  -0.16881   0.00000  -0.04659   0.00000
  20 2   C  1S          0.00000  -0.00000   0.00000  -0.00000   0.06221
  21        2S          0.00000   0.00000   0.00000  -0.00000   0.35862
  22        2PX         0.46707   0.00000  -0.25475   0.00000   0.00000
  23        2PY         0.00000   0.46707   0.00000  -0.25475   0.00000
  24        2PZ         0.00000  -0.00000   0.00000   0.00000   0.29259
  25        3S          0.00000  -0.00000   0.00000   0.00000  -0.38691
  26        3PX        -0.97191   0.00000   0.23199   0.00000   0.00000
  27        3PY         0.00000  -0.97191   0.00000   0.23199  -0.00000
  28        3PZ         0.00000   0.00000   0.00000  -0.00000  -0.21784
  29        4S          0.00000   0.00000   0.00000   0.00000   0.54200
  30        4PX        -0.25881   0.00000   0.73830   0.00000   0.00000
  31        4PY         0.00000  -0.25881   0.00000   0.73830  -0.00000
  32        4PZ         0.00000   0.00000   0.00000   0.00000   0.15836
  33        5XX         0.00000  -0.11895   0.00000   0.18808   0.09327
  34        5YY         0.00000   0.11895   0.00000  -0.18808   0.09327
  35        5ZZ         0.00000   0.00000   0.00000  -0.00000   0.00176
  36        5XY        -0.13735   0.00000   0.21717   0.00000   0.00000
  37        5XZ         0.16881   0.00000  -0.04659   0.00000   0.00000
  38        5YZ         0.00000   0.16881   0.00000  -0.04659   0.00000
  39 3   H  1S          0.00000  -0.58892   0.00000  -0.67277   0.52491
  40        2S          0.00000   1.63086   0.00000   1.13510  -0.53375
  41        3PX         0.02107   0.00000   0.07323   0.00000   0.00000
  42        3PY         0.00000  -0.05403   0.00000  -0.03599   0.04165
  43        3PZ         0.00000  -0.02021   0.00000  -0.01874   0.00884
  44 4   H  1S          0.00000   0.58892   0.00000  -0.67277   0.52491
  45        2S          0.00000  -1.63086   0.00000   1.13510  -0.53375
  46        3PX         0.02107   0.00000  -0.07323   0.00000   0.00000
  47        3PY         0.00000  -0.05403   0.00000   0.03599  -0.04165
  48        3PZ         0.00000  -0.02021   0.00000   0.01874  -0.00884
  49 5   H  1S         -0.51002   0.29446  -0.58264   0.33639   0.52491
  50        2S          1.41237  -0.81543   0.98303  -0.56755  -0.53375
  51        3PX        -0.03525   0.03252  -0.00868   0.04729   0.03607
  52        3PY         0.03252   0.00229   0.04729   0.04593  -0.02082
  53        3PZ        -0.01751   0.01011  -0.01623   0.00937   0.00884
  54 6   H  1S         -0.51002  -0.29446   0.58264   0.33639   0.52491
  55        2S          1.41237   0.81543  -0.98303  -0.56755  -0.53375
  56        3PX        -0.03525  -0.03252   0.00868   0.04729   0.03607
  57        3PY        -0.03252   0.00229   0.04729  -0.04593   0.02082
  58        3PZ         0.01751   0.01011  -0.01623  -0.00937  -0.00884
  59 7   H  1S          0.51002   0.29446   0.58264   0.33639   0.52491
  60        2S         -1.41237  -0.81543  -0.98303  -0.56755  -0.53375
  61        3PX        -0.03525  -0.03252  -0.00868  -0.04729  -0.03607
  62        3PY        -0.03252   0.00229  -0.04729   0.04593  -0.02082
  63        3PZ         0.01751   0.01011   0.01623   0.00937   0.00884
  64 8   H  1S          0.51002  -0.29446  -0.58264   0.33639   0.52491
  65        2S         -1.41237   0.81543   0.98303  -0.56755  -0.53375
  66        3PX        -0.03525   0.03252   0.00868  -0.04729  -0.03607
  67        3PY         0.03252   0.00229  -0.04729  -0.04593   0.02082
  68        3PZ        -0.01751   0.01011   0.01623  -0.00937  -0.00884
                          36        37        38        39        40
                       (A2U)--V  (A1G)--V   (EU)--V   (EU)--V  (A2U)--V
     Eigenvalues --     1.09366   1.10974   1.32005   1.32005   1.47128
   1 1   C  1S          0.01307  -0.04307   0.00000  -0.00000  -0.13618
   2        2S         -1.14053  -1.49489   0.00000  -0.00000  -1.53886
   3        2PX         0.00000   0.00000   0.03429   0.00000   0.00000
   4        2PY        -0.00000  -0.00000   0.00000   0.03429  -0.00000
   5        2PZ        -0.13340  -0.13188   0.00000   0.00000   0.03102
   6        3S          3.74415   3.68468   0.00000   0.00000   5.97270
   7        3PX         0.00000   0.00000   0.04401   0.00000   0.00000
   8        3PY         0.00000   0.00000   0.00000   0.04401   0.00000
   9        3PZ        -0.03450   0.74674   0.00000  -0.00000  -1.83023
  10        4S         10.19342   0.57317   0.00000  -0.00000  -5.26395
  11        4PX         0.00000   0.00000  -0.04602   0.00000   0.00000
  12        4PY         0.00000   0.00000   0.00000  -0.04602   0.00000
  13        4PZ        -2.64512  -0.14071   0.00000   0.00000   1.61266
  14        5XX         0.02722   0.00906   0.00000   0.22836  -0.08532
  15        5YY         0.02722   0.00906   0.00000  -0.22836  -0.08532
  16        5ZZ        -0.05523  -0.17964   0.00000   0.00000  -0.00099
  17        5XY         0.00000   0.00000   0.26368   0.00000   0.00000
  18        5XZ         0.00000   0.00000   0.42768   0.00000   0.00000
  19        5YZ         0.00000   0.00000   0.00000   0.42768  -0.00000
  20 2   C  1S         -0.01307  -0.04307   0.00000   0.00000   0.13618
  21        2S          1.14053  -1.49489   0.00000   0.00000   1.53886
  22        2PX         0.00000   0.00000   0.03429   0.00000   0.00000
  23        2PY        -0.00000   0.00000   0.00000   0.03429  -0.00000
  24        2PZ        -0.13340   0.13188   0.00000   0.00000   0.03102
  25        3S         -3.74415   3.68468   0.00000  -0.00000  -5.97270
  26        3PX         0.00000   0.00000   0.04401   0.00000   0.00000
  27        3PY         0.00000  -0.00000   0.00000   0.04401   0.00000
  28        3PZ        -0.03450  -0.74674   0.00000  -0.00000  -1.83023
  29        4S        -10.19342   0.57317   0.00000   0.00000   5.26395
  30        4PX         0.00000   0.00000  -0.04602   0.00000   0.00000
  31        4PY         0.00000  -0.00000   0.00000  -0.04602   0.00000
  32        4PZ        -2.64512   0.14071   0.00000   0.00000   1.61266
  33        5XX        -0.02722   0.00906   0.00000  -0.22836   0.08532
  34        5YY        -0.02722   0.00906   0.00000   0.22836   0.08532
  35        5ZZ         0.05523  -0.17964   0.00000  -0.00000   0.00099
  36        5XY         0.00000   0.00000  -0.26368   0.00000   0.00000
  37        5XZ         0.00000   0.00000  -0.42768   0.00000   0.00000
  38        5YZ        -0.00000   0.00000   0.00000  -0.42768   0.00000
  39 3   H  1S          0.40737   0.11126   0.00000  -0.09085  -0.48926
  40        2S         -1.52186  -1.44774   0.00000   0.06474  -0.26649
  41        3PX         0.00000   0.00000   0.18508   0.00000   0.00000
  42        3PY         0.05477   0.03667   0.00000  -0.06078  -0.00134
  43        3PZ         0.01784  -0.01989   0.00000   0.14831  -0.00230
  44 4   H  1S         -0.40737   0.11126   0.00000   0.09085   0.48926
  45        2S          1.52186  -1.44774   0.00000  -0.06474   0.26649
  46        3PX         0.00000   0.00000   0.18508   0.00000   0.00000
  47        3PY         0.05477  -0.03667   0.00000  -0.06078  -0.00134
  48        3PZ         0.01784   0.01989   0.00000   0.14831  -0.00230
  49 5   H  1S          0.40737   0.11126  -0.07868   0.04542  -0.48926
  50        2S         -1.52186  -1.44774   0.05607  -0.03237  -0.26649
  51        3PX         0.04743   0.03175   0.00068   0.10646  -0.00116
  52        3PY        -0.02739  -0.01833   0.10646   0.12361   0.00067
  53        3PZ         0.01784  -0.01989   0.12844  -0.07416  -0.00230
  54 6   H  1S         -0.40737   0.11126  -0.07868  -0.04542   0.48926
  55        2S          1.52186  -1.44774   0.05607   0.03237   0.26649
  56        3PX        -0.04743   0.03175   0.00068  -0.10646   0.00116
  57        3PY        -0.02739   0.01833  -0.10646   0.12361   0.00067
  58        3PZ         0.01784   0.01989  -0.12844  -0.07416  -0.00230
  59 7   H  1S          0.40737   0.11126   0.07868   0.04542  -0.48926
  60        2S         -1.52186  -1.44774  -0.05607  -0.03237  -0.26649
  61        3PX        -0.04743  -0.03175   0.00068  -0.10646   0.00116
  62        3PY        -0.02739  -0.01833  -0.10646   0.12361   0.00067
  63        3PZ         0.01784  -0.01989  -0.12844  -0.07416  -0.00230
  64 8   H  1S         -0.40737   0.11126   0.07868  -0.04542   0.48926
  65        2S          1.52186  -1.44774  -0.05607   0.03237   0.26649
  66        3PX         0.04743  -0.03175   0.00068   0.10646  -0.00116
  67        3PY        -0.02739   0.01833   0.10646   0.12361   0.00067
  68        3PZ         0.01784   0.01989   0.12844  -0.07416  -0.00230
                          41        42        43        44        45
                        (EG)--V   (EG)--V  (A1G)--V  (A1U)--V  (A2G)--V
     Eigenvalues --     1.70415   1.70415   1.94219   2.04121   2.04210
   1 1   C  1S          0.00000   0.00000   0.01748   0.00000   0.00000
   2        2S          0.00000  -0.00000  -0.48675   0.00000   0.00000
   3        2PX        -0.08299   0.00000   0.00000   0.00000   0.00000
   4        2PY         0.00000  -0.08299  -0.00000   0.00000   0.00000
   5        2PZ         0.00000  -0.00000   0.34494   0.00000   0.00000
   6        3S          0.00000   0.00000   0.35289   0.00000   0.00000
   7        3PX         0.70838   0.00000   0.00000  -0.00000  -0.00000
   8        3PY         0.00000   0.70838   0.00000   0.00000   0.00000
   9        3PZ         0.00000   0.00000  -0.46381   0.00000   0.00000
  10        4S          0.00000   0.00000   0.15890   0.00000   0.00000
  11        4PX        -0.05499   0.00000   0.00000   0.00000   0.00000
  12        4PY         0.00000  -0.05499   0.00000   0.00000   0.00000
  13        4PZ         0.00000  -0.00000   0.18356   0.00000   0.00000
  14        5XX         0.00000  -0.22616  -0.25079   0.00000   0.00000
  15        5YY         0.00000   0.22616  -0.25079   0.00000   0.00000
  16        5ZZ         0.00000  -0.00000   0.61626   0.00000   0.00000
  17        5XY        -0.26115   0.00000   0.00000   0.00000   0.00000
  18        5XZ        -0.38161   0.00000   0.00000  -0.00000  -0.00000
  19        5YZ         0.00000  -0.38161  -0.00000   0.00000   0.00000
  20 2   C  1S          0.00000   0.00000   0.01748   0.00000   0.00000
  21        2S          0.00000  -0.00000  -0.48675   0.00000   0.00000
  22        2PX         0.08299   0.00000   0.00000   0.00000  -0.00000
  23        2PY         0.00000   0.08299   0.00000   0.00000   0.00000
  24        2PZ         0.00000   0.00000  -0.34494   0.00000   0.00000
  25        3S          0.00000   0.00000   0.35289   0.00000   0.00000
  26        3PX        -0.70838   0.00000   0.00000  -0.00000   0.00000
  27        3PY         0.00000  -0.70838  -0.00000   0.00000   0.00000
  28        3PZ         0.00000  -0.00000   0.46381   0.00000   0.00000
  29        4S          0.00000   0.00000   0.15890   0.00000   0.00000
  30        4PX         0.05499   0.00000   0.00000   0.00000  -0.00000
  31        4PY         0.00000   0.05499  -0.00000   0.00000   0.00000
  32        4PZ         0.00000   0.00000  -0.18356   0.00000   0.00000
  33        5XX         0.00000  -0.22616  -0.25079   0.00000   0.00000
  34        5YY         0.00000   0.22616  -0.25079   0.00000   0.00000
  35        5ZZ         0.00000  -0.00000   0.61626   0.00000   0.00000
  36        5XY        -0.26115   0.00000   0.00000  -0.00000   0.00000
  37        5XZ        -0.38161   0.00000   0.00000   0.00000  -0.00000
  38        5YZ         0.00000  -0.38161  -0.00000   0.00000   0.00000
  39 3   H  1S          0.00000  -0.15782   0.18561   0.00000   0.00000
  40        2S          0.00000  -0.22557  -0.21758   0.00000   0.00000
  41        3PX        -0.05757   0.00000   0.00000   0.41092   0.41094
  42        3PY         0.00000   0.11785   0.04669   0.00000   0.00000
  43        3PZ         0.00000  -0.34074   0.11930   0.00000   0.00000
  44 4   H  1S          0.00000  -0.15782   0.18561   0.00000   0.00000
  45        2S          0.00000  -0.22557  -0.21758   0.00000   0.00000
  46        3PX         0.05757   0.00000   0.00000   0.41092  -0.41094
  47        3PY         0.00000  -0.11785  -0.04669   0.00000   0.00000
  48        3PZ         0.00000   0.34074  -0.11930   0.00000   0.00000
  49 5   H  1S         -0.13667   0.07891   0.18561   0.00000   0.00000
  50        2S         -0.19535   0.11279  -0.21758  -0.00000  -0.00000
  51        3PX         0.07399  -0.07596   0.04044  -0.20546  -0.20547
  52        3PY        -0.07596  -0.01372  -0.02335  -0.35587  -0.35588
  53        3PZ        -0.29509   0.17037   0.11930   0.00000  -0.00000
  54 6   H  1S          0.13667   0.07891   0.18561   0.00000  -0.00000
  55        2S          0.19535   0.11279  -0.21758  -0.00000   0.00000
  56        3PX        -0.07399  -0.07596   0.04044  -0.20546   0.20547
  57        3PY        -0.07596   0.01372   0.02335   0.35587  -0.35588
  58        3PZ        -0.29509  -0.17037  -0.11930  -0.00000  -0.00000
  59 7   H  1S          0.13667   0.07891   0.18561  -0.00000  -0.00000
  60        2S          0.19535   0.11279  -0.21758   0.00000   0.00000
  61        3PX         0.07399   0.07596  -0.04044  -0.20546  -0.20547
  62        3PY         0.07596  -0.01372  -0.02335   0.35587   0.35588
  63        3PZ         0.29509   0.17037   0.11930  -0.00000   0.00000
  64 8   H  1S         -0.13667   0.07891   0.18561  -0.00000   0.00000
  65        2S         -0.19535   0.11279  -0.21758   0.00000  -0.00000
  66        3PX        -0.07399   0.07596  -0.04044  -0.20546   0.20547
  67        3PY         0.07596   0.01372   0.02335  -0.35587   0.35588
  68        3PZ         0.29509  -0.17037  -0.11930   0.00000   0.00000
                          46        47        48        49        50
                        (EG)--V   (EG)--V   (EU)--V   (EU)--V   (EU)--V
     Eigenvalues --     2.07408   2.07408   2.08654   2.08654   2.29410
   1 1   C  1S          0.00000   0.00000   0.00000  -0.00000   0.00000
   2        2S          0.00000  -0.00000   0.00000  -0.00000   0.00000
   3        2PX        -0.11229   0.00000   0.09318   0.00000  -0.09446
   4        2PY         0.00000  -0.11229   0.00000   0.09318   0.00000
   5        2PZ         0.00000  -0.00000   0.00000   0.00000   0.00000
   6        3S          0.00000   0.00000   0.00000   0.00000   0.00000
   7        3PX         0.78054   0.00000  -0.27889   0.00000   0.35320
   8        3PY         0.00000   0.78054   0.00000  -0.27889   0.00000
   9        3PZ         0.00000   0.00000   0.00000  -0.00000   0.00000
  10        4S          0.00000   0.00000   0.00000   0.00000   0.00000
  11        4PX        -0.31948   0.00000   0.11747   0.00000   0.04839
  12        4PY         0.00000  -0.31948   0.00000   0.11747   0.00000
  13        4PZ         0.00000  -0.00000   0.00000  -0.00000   0.00000
  14        5XX         0.00000  -0.40587   0.00000   0.30066   0.00000
  15        5YY         0.00000   0.40587   0.00000  -0.30066   0.00000
  16        5ZZ         0.00000   0.00000   0.00000  -0.00000   0.00000
  17        5XY        -0.46866   0.00000   0.34717   0.00000   0.03462
  18        5XZ         0.15466   0.00000  -0.31884   0.00000  -0.25640
  19        5YZ         0.00000   0.15466   0.00000  -0.31884   0.00000
  20 2   C  1S          0.00000   0.00000   0.00000   0.00000   0.00000
  21        2S          0.00000  -0.00000   0.00000   0.00000   0.00000
  22        2PX         0.11229   0.00000   0.09318   0.00000  -0.09446
  23        2PY         0.00000   0.11229   0.00000   0.09318   0.00000
  24        2PZ         0.00000   0.00000   0.00000   0.00000   0.00000
  25        3S          0.00000   0.00000   0.00000  -0.00000   0.00000
  26        3PX        -0.78054   0.00000  -0.27889   0.00000   0.35320
  27        3PY         0.00000  -0.78054   0.00000  -0.27889   0.00000
  28        3PZ         0.00000  -0.00000   0.00000  -0.00000   0.00000
  29        4S          0.00000   0.00000   0.00000  -0.00000   0.00000
  30        4PX         0.31948   0.00000   0.11747   0.00000   0.04839
  31        4PY         0.00000   0.31948   0.00000   0.11747   0.00000
  32        4PZ         0.00000   0.00000   0.00000  -0.00000   0.00000
  33        5XX         0.00000  -0.40587   0.00000  -0.30066   0.00000
  34        5YY         0.00000   0.40587   0.00000   0.30066   0.00000
  35        5ZZ         0.00000   0.00000   0.00000   0.00000   0.00000
  36        5XY        -0.46866   0.00000  -0.34717   0.00000  -0.03462
  37        5XZ         0.15466   0.00000   0.31884   0.00000   0.25640
  38        5YZ         0.00000   0.15466   0.00000   0.31884   0.00000
  39 3   H  1S          0.00000  -0.51729   0.00000   0.44622   0.00000
  40        2S          0.00000   0.09858   0.00000  -0.26427   0.00000
  41        3PX        -0.17861   0.00000   0.21279   0.00000  -0.19539
  42        3PY         0.00000  -0.25244   0.00000   0.25784   0.00000
  43        3PZ         0.00000   0.10610   0.00000   0.05034   0.00000
  44 4   H  1S          0.00000  -0.51729   0.00000  -0.44622   0.00000
  45        2S          0.00000   0.09858   0.00000   0.26427   0.00000
  46        3PX         0.17861   0.00000   0.21279   0.00000  -0.19539
  47        3PY         0.00000   0.25244   0.00000   0.25784   0.00000
  48        3PZ         0.00000  -0.10610   0.00000   0.05034   0.00000
  49 5   H  1S         -0.44799   0.25865   0.38644  -0.22311   0.07504
  50        2S          0.08537  -0.04929  -0.22887   0.13214  -0.32270
  51        3PX        -0.23398   0.03197   0.24658  -0.01951  -0.18336
  52        3PY         0.03197  -0.19707  -0.01951   0.22405  -0.00694
  53        3PZ         0.09189  -0.05305   0.04360  -0.02517   0.45917
  54 6   H  1S          0.44799   0.25865   0.38644   0.22311   0.07504
  55        2S         -0.08537  -0.04929  -0.22887  -0.13214  -0.32270
  56        3PX         0.23398   0.03197   0.24658   0.01951  -0.18336
  57        3PY         0.03197   0.19707   0.01951   0.22405   0.00694
  58        3PZ         0.09189   0.05305  -0.04360  -0.02517  -0.45917
  59 7   H  1S          0.44799   0.25865  -0.38644  -0.22311  -0.07504
  60        2S         -0.08537  -0.04929   0.22887   0.13214   0.32270
  61        3PX        -0.23398  -0.03197   0.24658   0.01951  -0.18336
  62        3PY        -0.03197  -0.19707   0.01951   0.22405   0.00694
  63        3PZ        -0.09189  -0.05305  -0.04360  -0.02517  -0.45917
  64 8   H  1S         -0.44799   0.25865  -0.38644   0.22311  -0.07504
  65        2S          0.08537  -0.04929   0.22887  -0.13214   0.32270
  66        3PX         0.23398  -0.03197   0.24658  -0.01951  -0.18336
  67        3PY        -0.03197   0.19707  -0.01951   0.22405  -0.00694
  68        3PZ        -0.09189   0.05305   0.04360  -0.02517   0.45917
                          51        52        53        54        55
                        (EU)--V  (A2U)--V   (EG)--V   (EG)--V  (A1G)--V
     Eigenvalues --     2.29410   2.37495   2.49534   2.49534   2.66524
   1 1   C  1S          0.00000  -0.08360   0.00000  -0.00000  -0.01559
   2        2S         -0.00000  -0.10186   0.00000   0.00000   0.14466
   3        2PX         0.00000   0.00000   0.14321   0.00000   0.00000
   4        2PY        -0.09446  -0.00000   0.00000   0.14321  -0.00000
   5        2PZ         0.00000  -0.27358   0.00000   0.00000   0.02295
   6        3S         -0.00000   2.50547   0.00000  -0.00000   0.33881
   7        3PX         0.00000   0.00000   0.65628   0.00000   0.00000
   8        3PY         0.35320   0.00000   0.00000   0.65628  -0.00000
   9        3PZ         0.00000  -1.60269   0.00000   0.00000   0.44473
  10        4S          0.00000  -1.22093   0.00000  -0.00000   0.02205
  11        4PX         0.00000   0.00000  -0.02121   0.00000   0.00000
  12        4PY         0.04839   0.00000   0.00000  -0.02121   0.00000
  13        4PZ        -0.00000   0.51408   0.00000   0.00000  -0.10460
  14        5XX         0.02998  -0.25987   0.00000   0.14129  -0.19846
  15        5YY        -0.02998  -0.25987   0.00000  -0.14129  -0.19846
  16        5ZZ        -0.00000   0.46377   0.00000   0.00000   0.21822
  17        5XY         0.00000   0.00000   0.16314   0.00000   0.00000
  18        5XZ         0.00000   0.00000  -0.39417   0.00000   0.00000
  19        5YZ        -0.25640  -0.00000   0.00000  -0.39417   0.00000
  20 2   C  1S         -0.00000   0.08360   0.00000  -0.00000  -0.01559
  21        2S          0.00000   0.10186   0.00000   0.00000   0.14466
  22        2PX         0.00000   0.00000  -0.14321   0.00000   0.00000
  23        2PY        -0.09446  -0.00000   0.00000  -0.14321   0.00000
  24        2PZ         0.00000  -0.27358   0.00000  -0.00000  -0.02295
  25        3S          0.00000  -2.50547   0.00000  -0.00000   0.33881
[...]
     21 -0.902777D-04  0.141463D-02  0.649616D-02  0.898872D-02  0.375421D-02
     22  0.255822D-01 -0.110325D-01  0.111489D-02 -0.360602D-03  0.301885D-03
     23  0.674106D-03 -0.113147D-02 -0.360602D-03  0.153128D-02 -0.522880D-03
     24 -0.101202D-01  0.375421D-02  0.301885D-03 -0.522880D-03 -0.718750D-02
               16            17            18            19            20 
     16  0.110243D+00
     17  0.109905D+00  0.237150D+00
     18  0.471884D-01  0.817327D-01  0.875863D-01
     19  0.111489D-02  0.360602D-03  0.301885D-03  0.110243D+00
     20  0.360602D-03  0.153128D-02  0.522880D-03  0.109905D+00  0.237150D+00
     21  0.301885D-03  0.522880D-03 -0.718750D-02  0.471884D-01  0.817327D-01
     22  0.785982D-02 -0.131362D-01  0.649616D-02 -0.255813D-03  0.822225D-04
     23  0.131362D-01 -0.208830D-01  0.898872D-02 -0.822225D-04  0.770226D-03
     24  0.649616D-02 -0.898872D-02  0.375421D-02 -0.318640D-03 -0.371345D-03
               21            22            23            24 
     21  0.875863D-01
     22 -0.318640D-03  0.110243D+00
     23  0.371345D-03 -0.109905D+00  0.237150D+00
     24  0.141463D-02  0.471884D-01 -0.817327D-01  0.875863D-01
 Force constants in internal coordinates: 
                1             2             3             4             5 
      1  0.284202D+00
      2  0.551382D-02  0.336367D+00
      3  0.551367D-02  0.285048D-02  0.336366D+00
      4  0.551367D-02  0.285048D-02  0.285070D-02  0.336366D+00
      5  0.551382D-02 -0.976002D-03  0.637883D-03  0.637883D-03  0.336367D+00
      6  0.551367D-02  0.637883D-03  0.637640D-03 -0.975503D-03  0.285048D-02
      7  0.551367D-02  0.637883D-03 -0.975503D-03  0.637640D-03  0.285048D-02
      8  0.153032D-01  0.212185D-03 -0.551243D-02 -0.551243D-02  0.410061D-02
      9  0.153034D-01 -0.551217D-02  0.212039D-03 -0.551243D-02 -0.110913D-02
     10  0.153034D-01 -0.551217D-02 -0.551243D-02  0.212039D-03 -0.110913D-02
     11 -0.163152D-01  0.561980D-02  0.562018D-02  0.287504D-03 -0.117164D-02
     12 -0.163152D-01  0.561980D-02  0.287504D-03  0.562018D-02 -0.117164D-02
     13 -0.163150D-01  0.287425D-03  0.562006D-02  0.562006D-02  0.336462D-03
     14  0.153032D-01  0.410061D-02 -0.110894D-02 -0.110894D-02  0.212185D-03
     15  0.153034D-01 -0.110913D-02 -0.110877D-02  0.410062D-02 -0.551217D-02
     16  0.153034D-01 -0.110913D-02  0.410062D-02 -0.110877D-02 -0.551217D-02
     17 -0.163152D-01 -0.117164D-02  0.336375D-03 -0.117192D-02  0.561980D-02
     18 -0.163152D-01 -0.117164D-02 -0.117192D-02  0.336375D-03  0.561980D-02
     19 -0.163150D-01  0.336462D-03 -0.117185D-02 -0.117185D-02  0.287425D-03
     20  0.000000D+00  0.000000D+00  0.300950D-02 -0.300950D-02  0.000000D+00
     21  0.000000D+00 -0.536720D-03  0.408268D-02 -0.354599D-02 -0.354591D-02
     22  0.000000D+00  0.536720D-03  0.354599D-02 -0.408268D-02  0.354591D-02
     23  0.000000D+00 -0.354591D-02 -0.536617D-03  0.408257D-02 -0.536720D-03
     24  0.000000D+00 -0.408263D-02  0.536569D-03  0.354608D-02 -0.408263D-02
     25  0.000000D+00 -0.300919D-02  0.000000D+00  0.300939D-02  0.300919D-02
     26  0.000000D+00  0.354591D-02 -0.408257D-02  0.536617D-03  0.536720D-03
     27  0.000000D+00  0.300919D-02 -0.300939D-02  0.000000D+00 -0.300919D-02
     28  0.000000D+00  0.408263D-02 -0.354608D-02 -0.536569D-03  0.408263D-02
                6             7             8             9            10 
      6  0.336366D+00
      7  0.285070D-02  0.336366D+00
      8 -0.110894D-02 -0.110894D-02  0.102106D+00
      9 -0.110877D-02  0.410062D-02 -0.199928D-01  0.102107D+00
     10  0.410062D-02 -0.110877D-02 -0.199928D-01 -0.199932D-01  0.102107D+00
     11  0.336375D-03 -0.117192D-02 -0.400171D-01 -0.400174D-01  0.138062D-01
     12 -0.117192D-02  0.336375D-03 -0.400171D-01  0.138062D-01 -0.400174D-01
     13 -0.117185D-02 -0.117185D-02  0.138062D-01 -0.400172D-01 -0.400172D-01
     14 -0.551243D-02 -0.551243D-02  0.172770D-01 -0.701422D-02 -0.701422D-02
     15  0.212039D-03 -0.551243D-02 -0.701422D-02 -0.701447D-02  0.172774D-01
     16 -0.551243D-02  0.212039D-03 -0.701422D-02  0.172774D-01 -0.701447D-02
     17  0.562018D-02  0.287504D-03 -0.393202D-02  0.440074D-02 -0.393213D-02
     18  0.287504D-03  0.562018D-02 -0.393202D-02 -0.393213D-02  0.440074D-02
     19  0.562006D-02  0.562006D-02  0.440068D-02 -0.393211D-02 -0.393211D-02
     20  0.300950D-02 -0.300950D-02  0.000000D+00  0.281130D-02 -0.281130D-02
     21 -0.536617D-03  0.408257D-02 -0.195231D-02  0.671601D-02 -0.476373D-02
     22 -0.408257D-02  0.536617D-03  0.195231D-02  0.476373D-02 -0.671601D-02
     23  0.408268D-02 -0.354599D-02 -0.476357D-02 -0.195237D-02  0.671606D-02
     24  0.536569D-03  0.354608D-02 -0.671588D-02  0.195234D-02  0.476363D-02
     25 -0.300939D-02  0.000000D+00 -0.281126D-02  0.000000D+00  0.281135D-02
     26  0.354599D-02 -0.408268D-02  0.476357D-02 -0.671606D-02  0.195237D-02
     27  0.000000D+00  0.300939D-02  0.281126D-02 -0.281135D-02  0.000000D+00
     28 -0.354608D-02 -0.536569D-03  0.671588D-02 -0.476363D-02 -0.195234D-02
               11            12            13            14            15 
     11  0.518675D-01
     12  0.936980D-02  0.518675D-01
     13  0.936975D-02  0.936975D-02  0.518675D-01
     14 -0.393202D-02 -0.393202D-02  0.440068D-02  0.102106D+00
     15  0.440074D-02 -0.393213D-02 -0.393211D-02 -0.199928D-01  0.102107D+00
     16 -0.393213D-02  0.440074D-02 -0.393211D-02 -0.199928D-01 -0.199932D-01
     17  0.323454D-03  0.304539D-02  0.323560D-03 -0.400171D-01 -0.400174D-01
     18  0.304539D-02  0.323454D-03  0.323560D-03 -0.400171D-01  0.138062D-01
     19  0.323560D-03  0.323560D-03  0.304543D-02  0.138062D-01 -0.400172D-01
     20  0.656693D-02 -0.656693D-02  0.000000D+00  0.000000D+00  0.281130D-02
     21  0.583949D-02 -0.511199D-02 -0.727470D-03 -0.476357D-02 -0.195237D-02
     22  0.511199D-02 -0.583949D-02  0.727470D-03  0.476357D-02 -0.671606D-02
     23 -0.511210D-02 -0.727548D-03  0.583952D-02 -0.195231D-02  0.671601D-02
     24 -0.583954D-02  0.727391D-03  0.511205D-02 -0.671588D-02  0.195234D-02
     25 -0.656704D-02  0.000000D+00  0.656699D-02  0.281126D-02 -0.281135D-02
     26  0.727549D-03  0.511210D-02 -0.583952D-02  0.195231D-02  0.476373D-02
     27  0.000000D+00  0.656704D-02 -0.656699D-02 -0.281126D-02  0.000000D+00
     28 -0.727391D-03  0.583954D-02 -0.511205D-02  0.671588D-02 -0.476363D-02
               16            17            18            19            20 
     16  0.102107D+00
     17  0.138062D-01  0.518675D-01
     18 -0.400174D-01  0.936980D-02  0.518675D-01
     19 -0.400172D-01  0.936975D-02  0.936975D-02  0.518675D-01
     20 -0.281130D-02  0.656693D-02 -0.656693D-02  0.000000D+00  0.138949D-01
     21  0.671606D-02 -0.511210D-02 -0.727549D-03  0.583952D-02  0.366101D-02
     22  0.195237D-02  0.727548D-03  0.511210D-02 -0.583952D-02  0.366101D-02
     23 -0.476373D-02  0.583949D-02 -0.511199D-02 -0.727470D-03  0.366101D-02
     24  0.476363D-02 -0.583954D-02  0.727391D-03  0.511205D-02 -0.657287D-02
     25  0.000000D+00  0.000000D+00  0.656704D-02 -0.656699D-02 -0.657287D-02
     26 -0.671601D-02  0.511199D-02 -0.583949D-02  0.727470D-03  0.366101D-02
     27  0.281135D-02 -0.656704D-02  0.000000D+00  0.656699D-02 -0.657287D-02
     28 -0.195234D-02 -0.727391D-03  0.583954D-02 -0.511205D-02 -0.657287D-02
               21            22            23            24            25 
     21  0.146899D-01
     22  0.405847D-02  0.146899D-01
     23 -0.697041D-02 -0.736782D-02  0.146899D-01
     24  0.405849D-02 -0.697037D-02  0.405849D-02  0.146899D-01
     25 -0.657296D-02  0.366108D-02  0.366108D-02  0.366100D-02  0.138950D-01
     26 -0.736782D-02 -0.697041D-02  0.405847D-02 -0.697037D-02 -0.657296D-02
     27  0.366108D-02 -0.657296D-02 -0.657296D-02  0.366100D-02 -0.657304D-02
     28 -0.697037D-02  0.405849D-02 -0.697037D-02 -0.736787D-02  0.366100D-02
               26            27            28 
     26  0.146899D-01
     27  0.366108D-02  0.138950D-01
     28  0.405849D-02  0.366100D-02  0.146899D-01
 Leave Link  716 at Tue Mar 26 18:38:38 2024, MaxMem=   13107200 cpu:       0.0
 (Enter /programs/64bit/g09/g09-gfortran/bin/l103.exe)

 GradGradGradGradGradGradGradGradGradGradGradGradGradGradGradGradGradGrad
 Berny optimization.
 Internal  Forces:  Max     0.000130361 RMS     0.000037278
 Search for a local minimum.
 Step number   1 out of a maximum of    2
 All quantities printed in internal units (Hartrees-Bohrs-Radians)
 Second derivative matrix not updated -- analytic derivatives used.
     Eigenvalues ---    0.00225   0.04508   0.04508   0.04710   0.04710
     Eigenvalues ---    0.11999   0.12275   0.12275   0.12420   0.17635
     Eigenvalues ---    0.17635   0.30089   0.33315   0.33315   0.33558
     Eigenvalues ---    0.33558   0.34335   0.345361000.000001000.00000
     Eigenvalues --- 1000.000001000.000001000.000001000.000001000.00000
     Eigenvalues --- 1000.000001000.000001000.00000
 Angle between quadratic step and forces=  15.04 degrees.
 Linear search not attempted -- first point.
 Iteration  1 RMS(Cart)=  0.00021690 RMS(Int)=  0.00000007
 Iteration  2 RMS(Cart)=  0.00000007 RMS(Int)=  0.00000004
 ClnCor:  largest displacement from symmetrization is 2.98D-09 for atom     5.
 Variable       Old X    -DE/DX   Delta X   Delta X   Delta X     New X
                                 (Linear)    (Quad)   (Total)
    R1        2.89602  -0.00013   0.00000  -0.00072  -0.00072   2.89530
    R2        2.07033   0.00002   0.00000   0.00009   0.00009   2.07042
    R3        2.07033   0.00002   0.00000   0.00009   0.00009   2.07042
    R4        2.07033   0.00002   0.00000   0.00009   0.00009   2.07042
    R5        2.07033   0.00002   0.00000   0.00009   0.00009   2.07042
    R6        2.07033   0.00002   0.00000   0.00009   0.00009   2.07042
    R7        2.07033   0.00002   0.00000   0.00009   0.00009   2.07042
    A1        1.94309   0.00004   0.00000   0.00036   0.00036   1.94345
    A2        1.94309   0.00004   0.00000   0.00036   0.00036   1.94345
    A3        1.94309   0.00004   0.00000   0.00036   0.00036   1.94345
    A4        1.87709  -0.00004   0.00000  -0.00039  -0.00039   1.87670
    A5        1.87709  -0.00004   0.00000  -0.00039  -0.00039   1.87670
    A6        1.87709  -0.00004   0.00000  -0.00039  -0.00039   1.87670
    A7        1.94309   0.00004   0.00000   0.00036   0.00036   1.94345
    A8        1.94309   0.00004   0.00000   0.00036   0.00036   1.94345
    A9        1.94309   0.00004   0.00000   0.00036   0.00036   1.94345
   A10        1.87709  -0.00004   0.00000  -0.00039  -0.00039   1.87670
   A11        1.87709  -0.00004   0.00000  -0.00039  -0.00039   1.87670
   A12        1.87709  -0.00004   0.00000  -0.00039  -0.00039   1.87670
    D1        3.14159  -0.00000   0.00000   0.00000   0.00000   3.14159
    D2        1.04720  -0.00000   0.00000   0.00000   0.00000   1.04720
    D3       -1.04720  -0.00000   0.00000  -0.00000   0.00000  -1.04720
    D4        1.04720  -0.00000   0.00000   0.00000   0.00000   1.04720
    D5       -1.04720   0.00000   0.00000   0.00000  -0.00000  -1.04720
    D6        3.14159  -0.00000   0.00000   0.00000   0.00000   3.14159
    D7       -1.04720  -0.00000   0.00000  -0.00000  -0.00000  -1.04720
    D8        3.14159   0.00000   0.00000   0.00000  -0.00000   3.14159
    D9        1.04720   0.00000   0.00000  -0.00000   0.00000   1.04720
         Item               Value     Threshold  Converged?
 Maximum Force            0.000130     0.000450     YES
 RMS     Force            0.000037     0.000300     YES
 Maximum Displacement     0.000374     0.001800     YES
 RMS     Displacement     0.000217     0.001200     YES
 Predicted change in Energy=-1.433945D-07
 Optimization completed.
    -- Stationary point found.
                           ----------------------------
                           !   Optimized Parameters   !
                           ! (Angstroms and Degrees)  !
 --------------------------                            --------------------------
 ! Name  Definition              Value          Derivative Info.                !
 --------------------------------------------------------------------------------
 ! R1    R(1,2)                  1.5325         -DE/DX =   -0.0001              !
 ! R2    R(1,3)                  1.0956         -DE/DX =    0.0                 !
 ! R3    R(1,5)                  1.0956         -DE/DX =    0.0                 !
 ! R4    R(1,7)                  1.0956         -DE/DX =    0.0                 !
 ! R5    R(2,4)                  1.0956         -DE/DX =    0.0                 !
 ! R6    R(2,6)                  1.0956         -DE/DX =    0.0                 !
 ! R7    R(2,8)                  1.0956         -DE/DX =    0.0                 !
 ! A1    A(2,1,3)              111.3307         -DE/DX =    0.0                 !
 ! A2    A(2,1,5)              111.3307         -DE/DX =    0.0                 !
 ! A3    A(2,1,7)              111.3307         -DE/DX =    0.0                 !
 ! A4    A(3,1,5)              107.5494         -DE/DX =    0.0                 !
 ! A5    A(3,1,7)              107.5494         -DE/DX =    0.0                 !
 ! A6    A(5,1,7)              107.5494         -DE/DX =    0.0                 !
 ! A7    A(1,2,4)              111.3307         -DE/DX =    0.0                 !
 ! A8    A(1,2,6)              111.3307         -DE/DX =    0.0                 !
 ! A9    A(1,2,8)              111.3307         -DE/DX =    0.0                 !
 ! A10   A(4,2,6)              107.5494         -DE/DX =    0.0                 !
 ! A11   A(4,2,8)              107.5494         -DE/DX =    0.0                 !
 ! A12   A(6,2,8)              107.5494         -DE/DX =    0.0                 !
 ! D1    D(3,1,2,4)            180.0            -DE/DX =    0.0                 !
 ! D2    D(3,1,2,6)             60.0            -DE/DX =    0.0                 !
 ! D3    D(3,1,2,8)            -60.0            -DE/DX =    0.0                 !
 ! D4    D(5,1,2,4)             60.0            -DE/DX =    0.0                 !
 ! D5    D(5,1,2,6)            -60.0            -DE/DX =    0.0                 !
 ! D6    D(5,1,2,8)            180.0            -DE/DX =    0.0                 !
 ! D7    D(7,1,2,4)            -60.0            -DE/DX =    0.0                 !
 ! D8    D(7,1,2,6)            180.0            -DE/DX =    0.0                 !
 ! D9    D(7,1,2,8)             60.0            -DE/DX =    0.0                 !
 --------------------------------------------------------------------------------
 GradGradGradGradGradGradGradGradGradGradGradGradGradGradGradGradGradGrad

 Leave Link  103 at Tue Mar 26 18:38:38 2024, MaxMem=   13107200 cpu:       0.0
 (Enter /programs/64bit/g09/g09-gfortran/bin/l9999.exe)
 1\1\GINC-MOLMOD\Freq\RB3LYP\6-31+G(d,p)\C2H6\OSPITE\26-Mar-2024\0\\#P 
 Geom=AllCheck Guess=TCheck SCRF=Check GenChk RB3LYP/6-31+G(d,p) Freq\\
 c2h6\\0,1\C,0.,0.,-0.0162542652\C,0.,0.,1.5162542652\H,1.0205228139,0.
 ,-0.4147697846\H,-1.0205228139,0.,1.9147697846\H,-0.510261407,0.883798
 682,-0.4147697846\H,0.510261407,0.883798682,1.9147697846\H,-0.51026140
 7,-0.883798682,-0.4147697846\H,0.510261407,-0.883798682,1.9147697846\\
 Version=EM64L-G09RevA.02\State=1-A1G\HF=-79.8416413\RMSD=1.148e-09\RMS
 F=7.966e-05\ZeroPoint=0.0746063\Thermal=0.0780929\Dipole=0.,0.,0.\Dipo
 leDeriv=0.105565,0.,-0.0000372,0.,0.1055831,0.,0.0000027,0.,0.0738822,
 0.105565,0.,-0.0000372,0.,0.1055831,0.,0.0000027,0.,0.0738822,-0.14352
 07,0.,0.1064683,0.,0.0731407,0.,0.0626964,0.,-0.0246332,-0.1435207,0.,
 0.1064683,0.,0.0731407,0.,0.0626964,0.,-0.0246332,0.0189766,0.0938155,
 -0.0532248,0.093816,-0.0893586,0.0921949,-0.0313489,0.0543056,-0.02462
 88,0.0189766,-0.0938155,-0.0532248,-0.093816,-0.0893586,-0.0921949,-0.
 0313489,-0.0543056,-0.0246288,0.0189766,-0.0938155,-0.0532248,-0.09381
 6,-0.0893586,-0.0921949,-0.0313489,-0.0543056,-0.0246288,0.0189766,0.0
 938155,-0.0532248,0.093816,-0.0893586,0.0921949,-0.0313489,0.0543056,-
 0.0246288\Polar=24.5727948,0.,24.5730715,0.0000285,0.,27.3639183\PG=D0
 3D [C3(C1.C1),3SGD(H2)]\NImag=0\\0.56678636,0.,0.56678399,-0.00000061,
 0.,0.46918311,-0.07925020,0.,-0.00000193,0.56678636,0.,-0.07925594,0.,
 0.,0.56678399,-0.00000193,0.,-0.19697618,-0.00000061,0.,0.46918311,-0.
 27839907,0.,0.08591308,0.00242192,0.,-0.00096647,0.30060405,0.,-0.0486
 7882,0.,0.,-0.00036605,0.,0.,0.04678940,0.08484414,0.,-0.07837770,0.03
 252690,0.,-0.01235875,-0.09437681,0.,0.08758627,0.00242192,0.,-0.00096
 647,-0.27839907,0.,0.08591308,0.00173947,0.,-0.00060377,0.30060405,0.,
 -0.00036605,0.,0.,-0.04867882,0.,0.,0.00090669,0.,0.,0.04678940,0.0325
 2690,0.,-0.01235875,0.08484414,0.,-0.07837770,-0.00060377,0.,-0.007187
 50,-0.09437681,0.,0.08758627,-0.10610953,0.09947160,-0.04295655,0.0003
 3081,-0.00120762,0.00048388,-0.01369732,0.02558220,-0.01103254,0.00051
 372,-0.00052651,-0.00016227,0.11024306,0.09947142,-0.22096851,0.074402
 38,-0.00120739,0.00172567,-0.00083733,-0.00069017,0.00067411,-0.001131
 47,-0.00036207,0.00000070,0.00046162,-0.10990497,0.23715039,-0.0424215
 0,0.07347608,-0.07837749,-0.01626338,0.02816890,-0.01235836,0.00453638
 ,-0.01012020,0.00375421,0.00048091,0.00009028,0.00141463,0.04718840,-0
 .08173271,0.08758627,0.00033081,0.00120762,0.00048388,-0.10610953,-0.0
 9947160,-0.04295655,0.00051372,0.00052651,-0.00016227,-0.01369732,-0.0
 2558220,-0.01103254,-0.00025581,-0.00008222,-0.00031864,0.11024306,0.0
 0120739,0.00172567,0.00083733,-0.09947142,-0.22096851,-0.07440238,0.00
 036207,0.00000070,-0.00046162,0.00069017,0.00067411,0.00113147,0.00008
 222,0.00077023,-0.00037135,0.10990497,0.23715039,-0.01626338,-0.028168
 90,-0.01235836,-0.04242150,-0.07347608,-0.07837749,0.00048091,-0.00009
 028,0.00141463,0.00453638,0.01012020,0.00375421,-0.00031864,0.00037135
 ,0.00141463,0.04718840,0.08173271,0.08758627,-0.10610953,-0.09947160,-
 0.04295655,0.00033081,0.00120762,0.00048388,-0.01369732,-0.02558220,-0
 .01103254,0.00051372,0.00052651,-0.00016227,0.00785982,0.01313619,0.00
 649616,0.00111489,0.00036060,0.00030188,0.11024306,-0.09947142,-0.2209
 6851,-0.07440238,0.00120739,0.00172567,0.00083733,0.00069017,0.0006741
 1,0.00113147,0.00036207,0.00000070,-0.00046162,-0.01313619,-0.02088303
 ,-0.00898872,0.00036060,0.00153128,0.00052288,0.10990497,0.23715039,-0
 .04242150,-0.07347608,-0.07837749,-0.01626338,-0.02816890,-0.01235836,
 0.00453638,0.01012020,0.00375421,0.00048091,-0.00009028,0.00141463,0.0
 0649616,0.00898872,0.00375421,0.00030188,0.00052288,-0.00718750,0.0471
 8840,0.08173271,0.08758627,0.00033081,-0.00120762,0.00048388,-0.106109
 53,0.09947160,-0.04295655,0.00051372,-0.00052651,-0.00016227,-0.013697
 32,0.02558220,-0.01103254,0.00111489,-0.00036060,0.00030188,0.00785982
 ,-0.01313619,0.00649616,-0.00025581,0.00008222,-0.00031864,0.11024306,
 -0.00120739,0.00172567,-0.00083733,0.09947142,-0.22096851,0.07440238,-
 0.00036207,0.00000070,0.00046162,-0.00069017,0.00067411,-0.00113147,-0
 .00036060,0.00153128,-0.00052288,0.01313619,-0.02088303,0.00898872,-0.
 00008222,0.00077023,0.00037135,-0.10990497,0.23715039,-0.01626338,0.02
 816890,-0.01235836,-0.04242150,0.07347608,-0.07837749,0.00048091,0.000
 09028,0.00141463,0.00453638,-0.01012020,0.00375421,0.00030188,-0.00052
 288,-0.00718750,0.00649616,-0.00898872,0.00375421,-0.00031864,-0.00037
 135,0.00141463,0.04718840,-0.08173271,0.08758627\\0.,0.,-0.00026474,0.
 ,0.,0.00026474,-0.00000405,0.,0.00004479,0.00000405,0.,-0.00004479,0.0
 0000203,-0.00000351,0.00004479,-0.00000203,-0.00000351,-0.00004479,0.0
 0000203,0.00000351,0.00004479,-0.00000203,0.00000351,-0.00004479\\\@


 TELEVISION IS CALLED A MEDIUM BECAUSE IT ISN'T
 RARE, AND IT ISN'T WELL DONE.
 Job cpu time:  0 days  0 hours  0 minutes  4.9 seconds.
 File lengths (MBytes):  RWF=      5 Int=      0 D2E=      0 Chk=      2 Scr=      1
 Normal termination of Gaussian 09 at Tue Mar 26 18:38:38 2024.
