 Entering Gaussian System, Link 0=/programs/64bit/g09/g09-gfortran/bin/g09
 Input=c2h6_symm.com
 Output=c2h6_symm.log
 Initial command:
 /programs/64bit/g09/g09-gfortran/bin/l1.exe /home/ospite/QM/c2h6/Gau-13928.inp -scrdir=/home/ospite/QM/c2h6/
 Entering Link 1 = /programs/64bit/g09/g09-gfortran/bin/l1.exe PID=     13929.
  
 Copyright (c) 1988,1990,1992,1993,1995,1998,2003,2009, Gaussian, Inc.
                  All Rights Reserved.
  
 This is part of the Gaussian(R) 09 program.  It is based on
 the Gaussian(R) 03 system (copyright 2003, Gaussian, Inc.),
 the Gaussian(R) 98 system (copyright 1998, Gaussian, Inc.),
 the Gaussian(R) 94 system (copyright 1995, Gaussian, Inc.),
 the Gaussian 92(TM) system (copyright 1992, Gaussian, Inc.),
 the Gaussian 90(TM) system (copyright 1990, Gaussian, Inc.),
 the Gaussian 88(TM) system (copyright 1988, Gaussian, Inc.),
 the Gaussian 86(TM) system (copyright 1986, Carnegie Mellon
 University), and the Gaussian 82(TM) system (copyright 1983,
 Carnegie Mellon University). Gaussian is a federally registered
 trademark of Gaussian, Inc.
  
 This software contains proprietary and confidential information,
 including trade secrets, belonging to Gaussian, Inc.
  
 This software is provided under written license and may be
 used, copied, transmitted, or stored only in accord with that
 written license.
  
 The following legend is applicable only to US Government
 contracts under FAR:
  
                    RESTRICTED RIGHTS LEGEND
  
 Use, reproduction and disclosure by the US Government is
 subject to restrictions as set forth in subparagraphs (a)
 and (c) of the Commercial Computer Software - Restricted
 Rights clause in FAR 52.227-19.
  
 Gaussian, Inc.
 340 Quinnipiac St., Bldg. 40, Wallingford CT 06492
  
  
 ---------------------------------------------------------------
 Warning -- This program may not be used in any manner that
 competes with the business of Gaussian, Inc. or will provide
 assistance to any competitor of Gaussian, Inc.  The licensee
 of this program is prohibited from giving any competitor of
 Gaussian, Inc. access to this program.  By using this program,
 the user acknowledges that Gaussian, Inc. is engaged in the
 business of creating and licensing software in the field of
 computational chemistry and represents and warrants to the
 licensee that it is not a competitor of Gaussian, Inc. and that
 it will not use this program in any manner prohibited above.
 ---------------------------------------------------------------
  

 Cite this work as:
 Gaussian 09, Revision A.02,
 M. J. Frisch, G. W. Trucks, H. B. Schlegel, G. E. Scuseria, 
 M. A. Robb, J. R. Cheeseman, G. Scalmani, V. Barone, B. Mennucci, 
 G. A. Petersson, H. Nakatsuji, M. Caricato, X. Li, H. P. Hratchian, 
 A. F. Izmaylov, J. Bloino, G. Zheng, J. L. Sonnenberg, M. Hada, 
 M. Ehara, K. Toyota, R. Fukuda, J. Hasegawa, M. Ishida, T. Nakajima, 
 Y. Honda, O. Kitao, H. Nakai, T. Vreven, J. A. Montgomery, Jr., 
 J. E. Peralta, F. Ogliaro, M. Bearpark, J. J. Heyd, E. Brothers, 
 K. N. Kudin, V. N. Staroverov, R. Kobayashi, J. Normand, 
 K. Raghavachari, A. Rendell, J. C. Burant, S. S. Iyengar, J. Tomasi, 
 M. Cossi, N. Rega, J. M. Millam, M. Klene, J. E. Knox, J. B. Cross, 
 V. Bakken, C. Adamo, J. Jaramillo, R. Gomperts, R. E. Stratmann, 
 O. Yazyev, A. J. Austin, R. Cammi, C. Pomelli, J. W. Ochterski, 
 R. L. Martin, K. Morokuma, V. G. Zakrzewski, G. A. Voth, 
 P. Salvador, J. J. Dannenberg, S. Dapprich, A. D. Daniels, 
 O. Farkas, J. B. Foresman, J. V. Ortiz, J. Cioslowski, 
 and D. J. Fox, Gaussian, Inc., Wallingford CT, 2009.
 
 ******************************************
 Gaussian 09:  EM64L-G09RevA.02 11-Jun-2009
                23-Mar-2024 
 ******************************************
 %chk=tmp
 %mem=100MB
 ----------------------------------------------
 #p B3LYP/6-31+g(d,p) opt freq pop=full gfinput
 ----------------------------------------------
 1/14=-1,18=20,19=15,26=3,38=1/1,3;
 2/9=110,12=2,17=6,18=5,40=1/2;
 3/5=1,6=6,7=111,11=2,16=1,24=10,25=1,30=1,71=1,74=-5/1,2,3;
 4//1;
 5/5=2,38=5/2;
 6/7=3,28=1/1;
 7//1,2,3,16;
 1/14=-1,18=20,19=15/3(2);
 2/9=110/2;
 99//99;
 2/9=110/2;
 3/5=1,6=6,7=111,11=2,16=1,25=1,30=1,71=1,74=-5/1,2,3;
 4/5=5,16=3/1;
 5/5=2,38=5/2;
 7//1,2,3,16;
 1/14=-1,18=20,19=15/3(-5);
 2/9=110/2;
 6/7=3,19=2,28=1/1;
 99/9=1/99;
 Leave Link    1 at Sat Mar 23 10:56:11 2024, MaxMem=   13107200 cpu:       0.1
 (Enter /programs/64bit/g09/g09-gfortran/bin/l101.exe)
 ---------
 c2h6_symm
 ---------
 Symbolic Z-matrix:
 Charge =  0 Multiplicity = 1
 c
 c                    1    cc2
 h                    1    hc3      2    hcc3
 h                    1    hc4      2    hcc4     3    dih4     0
 h                    1    hc5      2    hcc5     3    dih5     0
 h                    2    hc6      1    hcc6     3    dih6     0
 h                    2    hc7      1    hcc7     6    dih7     0
 h                    2    hc8      1    hcc8     6    dih8     0
       Variables:
  cc2                   1.5                      
  hc3                   1.1                      
  hcc3                109.5                      
  hc4                   1.1                      
  hcc4                109.5                      
  dih4                240.                       
  hc5                   1.1                      
  hcc5                109.5                      
  dih5                120.                       
  hc6                   1.1                      
  hcc6                109.5                      
  dih6                120.                       
  hc7                   1.1                      
  hcc7                109.5                      
  dih7                120.                       
  hc8                   1.1                      
  hcc8                109.5                      
  dih8                240.                       
 
 NAtoms=      8 NQM=      8 NQMF=      0 NMic=      0 NMicF=      0 NTot=      8.
                    Isotopes and Nuclear Properties:
 (Nuclear quadrupole moments (NQMom) in fm**2, nuclear magnetic moments (NMagM)
  in nuclear magnetons)

  Atom         1           2           3           4           5           6           7           8
 IAtWgt=          12          12           1           1           1           1           1           1
 AtmWgt=  12.0000000  12.0000000   1.0078250   1.0078250   1.0078250   1.0078250   1.0078250   1.0078250
 NucSpn=           0           0           1           1           1           1           1           1
 AtZEff=   0.0000000   0.0000000   0.0000000   0.0000000   0.0000000   0.0000000   0.0000000   0.0000000
 NQMom=    0.0000000   0.0000000   0.0000000   0.0000000   0.0000000   0.0000000   0.0000000   0.0000000
 NMagM=    0.0000000   0.0000000   2.7928460   2.7928460   2.7928460   2.7928460   2.7928460   2.7928460
 Leave Link  101 at Sat Mar 23 10:56:11 2024, MaxMem=   13107200 cpu:       0.0
 (Enter /programs/64bit/g09/g09-gfortran/bin/l103.exe)

 GradGradGradGradGradGradGradGradGradGradGradGradGradGradGradGradGradGrad
 Berny optimization.
 Initialization pass.
                           ----------------------------
                           !    Initial Parameters    !
                           ! (Angstroms and Degrees)  !
 --------------------------                            --------------------------
 ! Name  Definition              Value          Derivative Info.                !
 --------------------------------------------------------------------------------
 ! R1    R(1,2)                  1.5            estimate D2E/DX2                !
 ! R2    R(1,3)                  1.1            estimate D2E/DX2                !
 ! R3    R(1,4)                  1.1            estimate D2E/DX2                !
 ! R4    R(1,5)                  1.1            estimate D2E/DX2                !
 ! R5    R(2,6)                  1.1            estimate D2E/DX2                !
 ! R6    R(2,7)                  1.1            estimate D2E/DX2                !
 ! R7    R(2,8)                  1.1            estimate D2E/DX2                !
 ! A1    A(2,1,3)              109.5            estimate D2E/DX2                !
 ! A2    A(2,1,4)              109.5            estimate D2E/DX2                !
 ! A3    A(2,1,5)              109.5            estimate D2E/DX2                !
 ! A4    A(3,1,4)              109.4424         estimate D2E/DX2                !
 ! A5    A(3,1,5)              109.4424         estimate D2E/DX2                !
 ! A6    A(4,1,5)              109.4424         estimate D2E/DX2                !
 ! A7    A(1,2,6)              109.5            estimate D2E/DX2                !
 ! A8    A(1,2,7)              109.5            estimate D2E/DX2                !
 ! A9    A(1,2,8)              109.5            estimate D2E/DX2                !
 ! A10   A(6,2,7)              109.4424         estimate D2E/DX2                !
 ! A11   A(6,2,8)              109.4424         estimate D2E/DX2                !
 ! A12   A(7,2,8)              109.4424         estimate D2E/DX2                !
 ! D1    D(3,1,2,6)            120.0            estimate D2E/DX2                !
 ! D2    D(3,1,2,7)           -120.0            estimate D2E/DX2                !
 ! D3    D(3,1,2,8)              0.0            estimate D2E/DX2                !
 ! D4    D(4,1,2,6)              0.0            estimate D2E/DX2                !
 ! D5    D(4,1,2,7)            120.0            estimate D2E/DX2                !
 ! D6    D(4,1,2,8)           -120.0            estimate D2E/DX2                !
 ! D7    D(5,1,2,6)           -120.0            estimate D2E/DX2                !
 ! D8    D(5,1,2,7)              0.0            estimate D2E/DX2                !
 ! D9    D(5,1,2,8)            120.0            estimate D2E/DX2                !
 --------------------------------------------------------------------------------
 Trust Radius=3.00D-01 FncErr=1.00D-07 GrdErr=1.00D-06
 Number of steps in this run=  38 maximum allowed number of steps= 100.
 GradGradGradGradGradGradGradGradGradGradGradGradGradGradGradGradGradGrad

 Leave Link  103 at Sat Mar 23 10:56:11 2024, MaxMem=   13107200 cpu:       0.0
 (Enter /programs/64bit/g09/g09-gfortran/bin/l202.exe)
                          Input orientation:                          
 ---------------------------------------------------------------------
 Center     Atomic      Atomic             Coordinates (Angstroms)
 Number     Number       Type             X           Y           Z
 ---------------------------------------------------------------------
      1          6           0        0.000000    0.000000    0.000000
      2          6           0        0.000000    0.000000    1.500000
      3          1           0        1.036906    0.000000   -0.367188
      4          1           0       -0.518453    0.897987   -0.367188
      5          1           0       -0.518453   -0.897987   -0.367188
      6          1           0       -0.518453    0.897987    1.867188
      7          1           0       -0.518453   -0.897987    1.867188
      8          1           0        1.036906    0.000000    1.867188
 ---------------------------------------------------------------------
                    Distance matrix (angstroms):
                    1          2          3          4          5
     1  C    0.000000
     2  C    1.500000   0.000000
     3  H    1.100000   2.135782   0.000000
     4  H    1.100000   2.135782   1.795973   0.000000
     5  H    1.100000   2.135782   1.795973   1.795973   0.000000
     6  H    2.135782   1.100000   2.866697   2.234375   2.866697
     7  H    2.135782   1.100000   2.866697   2.866697   2.234375
     8  H    2.135782   1.100000   2.234375   2.866697   2.866697
                    6          7          8
     6  H    0.000000
     7  H    1.795973   0.000000
     8  H    1.795973   1.795973   0.000000
 Stoichiometry    C2H6
 Framework group  D3H[C3(C.C),3SGV(H2)]
 Deg. of freedom     3
 Full point group                 D3H     NOp  12
 Largest Abelian subgroup         C2V     NOp   4
 Largest concise Abelian subgroup C2V     NOp   4
                         Standard orientation:                         
 ---------------------------------------------------------------------
 Center     Atomic      Atomic             Coordinates (Angstroms)
 Number     Number       Type             X           Y           Z
 ---------------------------------------------------------------------
      1          6           0        0.000000    0.000000    0.750000
      2          6           0        0.000000    0.000000   -0.750000
      3          1           0        0.000000    1.036906    1.117188
      4          1           0        0.897987   -0.518453    1.117188
      5          1           0       -0.897987   -0.518453    1.117188
      6          1           0        0.897987   -0.518453   -1.117188
      7          1           0       -0.897987   -0.518453   -1.117188
      8          1           0        0.000000    1.036906   -1.117188
 ---------------------------------------------------------------------
 Rotational constants (GHZ):     77.7324451     20.7991960     20.7991960
 Leave Link  202 at Sat Mar 23 10:56:11 2024, MaxMem=   13107200 cpu:       0.0
 (Enter /programs/64bit/g09/g09-gfortran/bin/l301.exe)
 Standard basis: 6-31+G(d,p) (6D, 7F)
 Ernie: Thresh=  0.10000D-02 Tol=  0.10000D-05 Strict=F.
 AO basis set in the form of general basis input (Overlap normalization):
      1 0
 S   6 1.00       0.000000000000
      0.3047524880D+04  0.1834737132D-02
      0.4573695180D+03  0.1403732281D-01
      0.1039486850D+03  0.6884262226D-01
      0.2921015530D+02  0.2321844432D+00
      0.9286662960D+01  0.4679413484D+00
      0.3163926960D+01  0.3623119853D+00
 SP   3 1.00       0.000000000000
      0.7868272350D+01 -0.1193324198D+00  0.6899906659D-01
      0.1881288540D+01 -0.1608541517D+00  0.3164239610D+00
      0.5442492580D+00  0.1143456438D+01  0.7443082909D+00
 SP   1 1.00       0.000000000000
      0.1687144782D+00  0.1000000000D+01  0.1000000000D+01
 SP   1 1.00       0.000000000000
      0.4380000000D-01  0.1000000000D+01  0.1000000000D+01
 D   1 1.00       0.000000000000
      0.8000000000D+00  0.1000000000D+01
 ****
      2 0
 S   6 1.00       0.000000000000
      0.3047524880D+04  0.1834737132D-02
      0.4573695180D+03  0.1403732281D-01
      0.1039486850D+03  0.6884262226D-01
      0.2921015530D+02  0.2321844432D+00
      0.9286662960D+01  0.4679413484D+00
      0.3163926960D+01  0.3623119853D+00
 SP   3 1.00       0.000000000000
      0.7868272350D+01 -0.1193324198D+00  0.6899906659D-01
      0.1881288540D+01 -0.1608541517D+00  0.3164239610D+00
      0.5442492580D+00  0.1143456438D+01  0.7443082909D+00
 SP   1 1.00       0.000000000000
      0.1687144782D+00  0.1000000000D+01  0.1000000000D+01
 SP   1 1.00       0.000000000000
      0.4380000000D-01  0.1000000000D+01  0.1000000000D+01
 D   1 1.00       0.000000000000
      0.8000000000D+00  0.1000000000D+01
 ****
      3 0
 S   3 1.00       0.000000000000
      0.1873113696D+02  0.3349460434D-01
      0.2825394365D+01  0.2347269535D+00
      0.6401216923D+00  0.8137573261D+00
 S   1 1.00       0.000000000000
      0.1612777588D+00  0.1000000000D+01
 P   1 1.00       0.000000000000
      0.1100000000D+01  0.1000000000D+01
 ****
      4 0
 S   3 1.00       0.000000000000
      0.1873113696D+02  0.3349460434D-01
      0.2825394365D+01  0.2347269535D+00
      0.6401216923D+00  0.8137573261D+00
 S   1 1.00       0.000000000000
      0.1612777588D+00  0.1000000000D+01
 P   1 1.00       0.000000000000
      0.1100000000D+01  0.1000000000D+01
 ****
      5 0
 S   3 1.00       0.000000000000
      0.1873113696D+02  0.3349460434D-01
      0.2825394365D+01  0.2347269535D+00
      0.6401216923D+00  0.8137573261D+00
 S   1 1.00       0.000000000000
      0.1612777588D+00  0.1000000000D+01
 P   1 1.00       0.000000000000
      0.1100000000D+01  0.1000000000D+01
 ****
      6 0
 S   3 1.00       0.000000000000
      0.1873113696D+02  0.3349460434D-01
      0.2825394365D+01  0.2347269535D+00
      0.6401216923D+00  0.8137573261D+00
 S   1 1.00       0.000000000000
      0.1612777588D+00  0.1000000000D+01
 P   1 1.00       0.000000000000
      0.1100000000D+01  0.1000000000D+01
 ****
      7 0
 S   3 1.00       0.000000000000
      0.1873113696D+02  0.3349460434D-01
      0.2825394365D+01  0.2347269535D+00
      0.6401216923D+00  0.8137573261D+00
 S   1 1.00       0.000000000000
      0.1612777588D+00  0.1000000000D+01
 P   1 1.00       0.000000000000
      0.1100000000D+01  0.1000000000D+01
 ****
      8 0
 S   3 1.00       0.000000000000
      0.1873113696D+02  0.3349460434D-01
      0.2825394365D+01  0.2347269535D+00
      0.6401216923D+00  0.8137573261D+00
 S   1 1.00       0.000000000000
      0.1612777588D+00  0.1000000000D+01
 P   1 1.00       0.000000000000
      0.1100000000D+01  0.1000000000D+01
 ****

 There are    23 symmetry adapted basis functions of A1  symmetry.
 There are    11 symmetry adapted basis functions of A2  symmetry.
 There are    11 symmetry adapted basis functions of B1  symmetry.
 There are    23 symmetry adapted basis functions of B2  symmetry.
 Integral buffers will be    131072 words long.
 Raffenetti 2 integral format.
 Two-electron integral symmetry is turned on.
    68 basis functions,   106 primitive gaussians,    68 cartesian basis functions
     9 alpha electrons        9 beta electrons
       nuclear repulsion energy        42.5243602583 Hartrees.
 IExCor=  402 DFT=T Ex+Corr=B3LYP ExCW=0 ScaHFX=  0.200000
 ScaDFX=  0.800000  0.720000  1.000000  0.810000 ScalE2=  1.000000  1.000000
 IRadAn=      0 IRanWt=     -1 IRanGd=            0 ICorTp=0
 NAtoms=    8 NActive=    8 NUniq=    2 SFac= 3.00D+00 NAtFMM=   80 NAOKFM=F Big=F
 Leave Link  301 at Sat Mar 23 10:56:11 2024, MaxMem=   13107200 cpu:       0.0
 (Enter /programs/64bit/g09/g09-gfortran/bin/l302.exe)
 NPDir=0 NMtPBC=     1 NCelOv=     1 NCel=       1 NClECP=     1 NCelD=      1
         NCelK=      1 NCelE2=     1 NClLst=     1 CellRange=     0.0.
 One-electron integrals computed using PRISM.
 One-electron integral symmetry used in STVInt
 NBasis=    68 RedAO= T  NBF=    23    11    11    23
 NBsUse=    68 1.00D-06 NBFU=    23    11    11    23
 Precomputing XC quadrature grid using
 IXCGrd= 2 IRadAn=           0 IRanWt=          -1 IRanGd=           0 AccXCQ= 1.00D-10.
 NRdTot=     510 NPtTot=       65100 NUsed=       68787 NTot=       68819
 NSgBfM=    68    68    68    68    68 NAtAll=     8     8.
 Leave Link  302 at Sat Mar 23 10:56:11 2024, MaxMem=   13107200 cpu:       0.1
 (Enter /programs/64bit/g09/g09-gfortran/bin/l303.exe)
 DipDrv:  MaxL=1.
 Leave Link  303 at Sat Mar 23 10:56:11 2024, MaxMem=   13107200 cpu:       0.0
 (Enter /programs/64bit/g09/g09-gfortran/bin/l401.exe)
 Harris functional with IExCor=  402 diagonalized for initial guess.
 ExpMin= 4.38D-02 ExpMax= 3.05D+03 ExpMxC= 4.57D+02 IAcc=2 IRadAn=         0 AccDes= 0.00D+00
 HarFok:  IExCor=  402 AccDes= 0.00D+00 IRadAn=         0 IDoV= 1
 ScaDFX=  1.000000  1.000000  1.000000  1.000000
 FoFCou: FMM=F IPFlag=           0 FMFlag=      100000 FMFlg1=           0
         NFxFlg=           0 DoJE=T BraDBF=F KetDBF=T FulRan=T
         Omega=  0.000000  0.000000  1.000000  0.000000  0.000000 ICntrl=     500 IOpCl=  0
         NMat0=    1 NMatS0=    1 NMatT0=    0 NMatD0=    1 NMtDS0=    0 NMtDT0=    0
         I1Cent=           4 NGrid=           0.
 Petite list used in FoFCou.
 Harris En= -79.8930724637602    
 Initial guess orbital symmetries:
       Occupied  (A1') (A2") (A1') (A2") (E') (E') (A1') (E") (E")
       Virtual   (A1') (A2") (E') (E') (A1') (E") (E") (E') (E')
                 (A2") (A2") (E") (E") (A1') (A2") (A1') (E') (E')
                 (A2") (E") (E") (E') (E') (E") (E") (A1') (A1')
                 (A2") (E') (E') (A2") (E") (E") (A1') (E') (E')
                 (A2') (A1") (E") (E") (E') (E') (A2") (E") (E")
                 (A1') (A2") (E') (E') (E") (E") (A1') (A2") (E')
                 (E') (E") (E") (A1') (A2")
 The electronic state of the initial guess is 1-A1'.
 Leave Link  401 at Sat Mar 23 10:56:11 2024, MaxMem=   13107200 cpu:       0.1
 (Enter /programs/64bit/g09/g09-gfortran/bin/l502.exe)
 Closed shell SCF:
 Requested convergence on RMS density matrix=1.00D-08 within 128 cycles.
 Requested convergence on MAX density matrix=1.00D-06.
 Requested convergence on             energy=1.00D-06.
 No special actions if energy rises.
 Using DIIS extrapolation, IDIIS=  1040.
 Integral symmetry usage will be decided dynamically.
        68702 words used for storage of precomputed grid.
 Keep R1 ints in memory in canonical form, NReq=3743695.
 IEnd=      102160 IEndB=      102160 NGot=    13107200 MDV=    10273314
 LenX=    10273314 LenY=    10268249
 Symmetry not used in FoFDir.
 MinBra= 0 MaxBra= 2 Meth= 1.
 IRaf=       0 NMat=   1 IRICut=       1 DoRegI=T DoRafI=F ISym2E= 0 JSym2E=0.

 Cycle   1  Pass 1  IDiag  1:
 E= -79.6959711302329    
 DIIS: error= 5.22D-02 at cycle   1 NSaved=   1.
 NSaved= 1 IEnMin= 1 EnMin= -79.6959711302329     IErMin= 1 ErrMin= 5.22D-02
 ErrMax= 5.22D-02 EMaxC= 1.00D-01 BMatC= 1.22D-01 BMatP= 1.22D-01
 IDIUse=3 WtCom= 4.78D-01 WtEn= 5.22D-01
 Coeff-Com:  0.100D+01
 Coeff-En:   0.100D+01
 Coeff:      0.100D+01
 Gap=     0.250 Goal=   None    Shift=    0.000
 GapD=    0.250 DampG=1.000 DampE=0.500 DampFc=0.5000 IDamp=-1.
 Damping current iteration by 5.00D-01
 RMSDP=1.01D-02 MaxDP=1.44D-01              OVMax= 2.09D-01

 Cycle   2  Pass 1  IDiag  1:
 E= -79.7517183358867     Delta-E=       -0.055747205654 Rises=F Damp=T
 DIIS: error= 1.11D-02 at cycle   2 NSaved=   2.
 NSaved= 2 IEnMin= 2 EnMin= -79.7517183358867     IErMin= 2 ErrMin= 1.11D-02
 ErrMax= 1.11D-02 EMaxC= 1.00D-01 BMatC= 5.03D-03 BMatP= 1.22D-01
 IDIUse=3 WtCom= 8.89D-01 WtEn= 1.11D-01
 Coeff-Com:  0.118D+00 0.882D+00
 Coeff-En:   0.205D+00 0.795D+00
 Coeff:      0.128D+00 0.872D+00
 Gap=     0.349 Goal=   None    Shift=    0.000
 RMSDP=1.38D-03 MaxDP=1.18D-02 DE=-5.57D-02 OVMax= 1.31D-01

 Cycle   3  Pass 1  IDiag  1:
 E= -79.8334508914672     Delta-E=       -0.081732555581 Rises=F Damp=F
 DIIS: error= 2.04D-03 at cycle   3 NSaved=   3.
 NSaved= 3 IEnMin= 3 EnMin= -79.8334508914672     IErMin= 3 ErrMin= 2.04D-03
 ErrMax= 2.04D-03 EMaxC= 1.00D-01 BMatC= 1.44D-04 BMatP= 5.03D-03
 IDIUse=3 WtCom= 9.80D-01 WtEn= 2.04D-02
 Coeff-Com:  0.731D-02 0.968D-01 0.896D+00
 Coeff-En:   0.000D+00 0.000D+00 0.100D+01
 Coeff:      0.717D-02 0.948D-01 0.898D+00
 Gap=     0.357 Goal=   None    Shift=    0.000
 RMSDP=1.82D-04 MaxDP=2.14D-03 DE=-8.17D-02 OVMax= 4.44D-03

 Cycle   4  Pass 1  IDiag  1:
 E= -79.8335722114493     Delta-E=       -0.000121319982 Rises=F Damp=F
 DIIS: error= 5.70D-04 at cycle   4 NSaved=   4.
 NSaved= 4 IEnMin= 4 EnMin= -79.8335722114493     IErMin= 4 ErrMin= 5.70D-04
 ErrMax= 5.70D-04 EMaxC= 1.00D-01 BMatC= 9.68D-06 BMatP= 1.44D-04
 IDIUse=3 WtCom= 9.94D-01 WtEn= 5.70D-03
 Coeff-Com: -0.779D-03-0.545D-02 0.196D+00 0.811D+00
 Coeff-En:   0.000D+00 0.000D+00 0.000D+00 0.100D+01
 Coeff:     -0.774D-03-0.542D-02 0.195D+00 0.812D+00
 Gap=     0.357 Goal=   None    Shift=    0.000
 RMSDP=4.03D-05 MaxDP=3.89D-04 DE=-1.21D-04 OVMax= 1.19D-03

 Cycle   5  Pass 1  IDiag  1:
 E= -79.8335812692877     Delta-E=       -0.000009057838 Rises=F Damp=F
 DIIS: error= 2.40D-05 at cycle   5 NSaved=   5.
 NSaved= 5 IEnMin= 5 EnMin= -79.8335812692877     IErMin= 5 ErrMin= 2.40D-05
 ErrMax= 2.40D-05 EMaxC= 1.00D-01 BMatC= 2.86D-08 BMatP= 9.68D-06
 IDIUse=1 WtCom= 1.00D+00 WtEn= 0.00D+00
 Coeff-Com:  0.422D-03-0.489D-03-0.641D-02-0.110D-01 0.102D+01
 Coeff:      0.422D-03-0.489D-03-0.641D-02-0.110D-01 0.102D+01
 Gap=     0.357 Goal=   None    Shift=    0.000
 RMSDP=2.81D-06 MaxDP=3.48D-05 DE=-9.06D-06 OVMax= 8.73D-05

 Cycle   6  Pass 1  IDiag  1:
 E= -79.8335813032508     Delta-E=       -0.000000033963 Rises=F Damp=F
 DIIS: error= 8.74D-07 at cycle   6 NSaved=   6.
 NSaved= 6 IEnMin= 6 EnMin= -79.8335813032508     IErMin= 6 ErrMin= 8.74D-07
 ErrMax= 8.74D-07 EMaxC= 1.00D-01 BMatC= 2.79D-11 BMatP= 2.86D-08
 IDIUse=1 WtCom= 1.00D+00 WtEn= 0.00D+00
 Coeff-Com: -0.174D-04 0.708D-05-0.542D-03-0.201D-02-0.130D-01 0.102D+01
 Coeff:     -0.174D-04 0.708D-05-0.542D-03-0.201D-02-0.130D-01 0.102D+01
 Gap=     0.357 Goal=   None    Shift=    0.000
 RMSDP=1.58D-07 MaxDP=1.43D-06 DE=-3.40D-08 OVMax= 2.81D-06

 Cycle   7  Pass 1  IDiag  1:
 E= -79.8335813032988     Delta-E=       -0.000000000048 Rises=F Damp=F
 DIIS: error= 6.05D-08 at cycle   7 NSaved=   7.
 NSaved= 7 IEnMin= 7 EnMin= -79.8335813032988     IErMin= 7 ErrMin= 6.05D-08
 ErrMax= 6.05D-08 EMaxC= 1.00D-01 BMatC= 7.05D-14 BMatP= 2.79D-11
 IDIUse=1 WtCom= 1.00D+00 WtEn= 0.00D+00
 Coeff-Com: -0.284D-07 0.943D-06 0.424D-04 0.623D-04-0.202D-02-0.439D-01
 Coeff-Com:  0.105D+01
 Coeff:     -0.284D-07 0.943D-06 0.424D-04 0.623D-04-0.202D-02-0.439D-01
 Coeff:      0.105D+01
 Gap=     0.357 Goal=   None    Shift=    0.000
 RMSDP=8.47D-09 MaxDP=1.05D-07 DE=-4.80D-11 OVMax= 2.14D-07

 SCF Done:  E(RB3LYP) =  -79.8335813033     A.U. after    7 cycles
             Convg  =    0.8469D-08             -V/T =  2.0103
 KE= 7.902070879260D+01 PE=-2.688282255340D+02 EE= 6.744957517984D+01
 Leave Link  502 at Sat Mar 23 10:56:11 2024, MaxMem=   13107200 cpu:       0.3
 (Enter /programs/64bit/g09/g09-gfortran/bin/l601.exe)
 Copying SCF densities to generalized density rwf, IOpCl= 0 IROHF=0.

 **********************************************************************

            Population analysis using the SCF density.

 **********************************************************************

 Orbital symmetries:
       Occupied  (A1') (A2") (A1') (A2") (E') (E') (A1') (E") (E")
       Virtual   (A1') (A2") (E') (E') (A1') (E") (E") (A2") (E')
                 (E') (A2") (E") (E") (A1') (A2") (A1') (E') (E')
                 (E") (E") (A2") (E') (E') (E") (E") (A1') (A1')
                 (A2") (E') (E') (A2") (E") (E") (A1') (E') (E')
                 (A2') (A1") (E") (E") (E') (E') (A2") (E") (E")
                 (A1') (E') (E') (A2") (E") (E") (A1') (A2") (E')
                 (E') (E") (E") (A1') (A2")
 The electronic state is 1-A1'.
 Alpha  occ. eigenvalues --  -10.17493 -10.17468  -0.76048  -0.60736  -0.44302
 Alpha  occ. eigenvalues --   -0.44302  -0.36391  -0.33891  -0.33891
 Alpha virt. eigenvalues --    0.01780   0.03291   0.05189   0.05189   0.07881
 Alpha virt. eigenvalues --    0.09108   0.09108   0.14220   0.14688   0.14688
 Alpha virt. eigenvalues --    0.26655   0.26820   0.26820   0.27858   0.35036
 Alpha virt. eigenvalues --    0.60680   0.64674   0.64674   0.70198   0.70198
 Alpha virt. eigenvalues --    0.71441   0.86197   0.86197   0.97623   0.97623
 Alpha virt. eigenvalues --    1.00960   1.06136   1.12530   1.30022   1.30022
 Alpha virt. eigenvalues --    1.51182   1.71711   1.71711   1.94353   2.01902
 Alpha virt. eigenvalues --    2.01902   2.04140   2.04252   2.14075   2.14075
 Alpha virt. eigenvalues --    2.24876   2.24876   2.39413   2.60199   2.60199
 Alpha virt. eigenvalues --    2.67107   2.71325   2.71325   2.71763   2.97347
 Alpha virt. eigenvalues --    2.97347   3.17928   3.30984   3.36282   3.36282
 Alpha virt. eigenvalues --    3.47932   3.47932   4.32692   4.61151
     Molecular Orbital Coefficients:
                           1         2         3         4         5
                       (A1')--O  (A2")--O  (A1')--O  (A2")--O   (E')--O
     Eigenvalues --   -10.17493 -10.17468  -0.76048  -0.60736  -0.44302
   1 1   C  1S          0.70201   0.70226  -0.14974  -0.13071   0.00000
   2        2S          0.03504   0.03573   0.28622   0.25832   0.00000
   3        2PX         0.00000   0.00000   0.00000   0.00000   0.31509
   4        2PY         0.00000  -0.00000   0.00000   0.00000   0.00000
   5        2PZ         0.00006  -0.00014  -0.07135   0.12761   0.00000
   6        3S         -0.00863  -0.01814   0.23337   0.28123   0.00000
   7        3PX         0.00000   0.00000   0.00000   0.00000   0.13290
   8        3PY         0.00000   0.00000  -0.00000  -0.00000   0.00000
   9        3PZ        -0.00058   0.00312  -0.01194   0.02797   0.00000
  10        4S         -0.00028  -0.00709   0.00589   0.05821   0.00000
  11        4PX         0.00000   0.00000   0.00000   0.00000   0.01539
  12        4PY         0.00000   0.00000  -0.00000  -0.00000   0.00000
  13        4PZ        -0.00021   0.00157   0.00023  -0.00886   0.00000
  14        5XX        -0.00643  -0.00612  -0.00944  -0.00144   0.00000
  15        5YY        -0.00643  -0.00612  -0.00944  -0.00144   0.00000
  16        5ZZ        -0.00679  -0.00609   0.00269  -0.01864   0.00000
  17        5XY         0.00000   0.00000   0.00000   0.00000  -0.01276
  18        5XZ         0.00000   0.00000   0.00000   0.00000  -0.00121
  19        5YZ         0.00000  -0.00000   0.00000   0.00000   0.00000
  20 2   C  1S          0.70201  -0.70226  -0.14974   0.13071   0.00000
  21        2S          0.03504  -0.03573   0.28622  -0.25832   0.00000
  22        2PX         0.00000   0.00000   0.00000   0.00000   0.31509
  23        2PY         0.00000   0.00000   0.00000  -0.00000   0.00000
  24        2PZ        -0.00006  -0.00014   0.07135   0.12761   0.00000
  25        3S         -0.00863   0.01814   0.23337  -0.28123   0.00000
  26        3PX         0.00000   0.00000   0.00000   0.00000   0.13290
  27        3PY         0.00000  -0.00000  -0.00000   0.00000   0.00000
  28        3PZ         0.00058   0.00312   0.01194   0.02797   0.00000
  29        4S         -0.00028   0.00709   0.00589  -0.05821   0.00000
  30        4PX         0.00000   0.00000   0.00000   0.00000   0.01539
  31        4PY         0.00000  -0.00000  -0.00000   0.00000   0.00000
  32        4PZ         0.00021   0.00157  -0.00023  -0.00886   0.00000
  33        5XX        -0.00643   0.00612  -0.00944   0.00144   0.00000
  34        5YY        -0.00643   0.00612  -0.00944   0.00144   0.00000
  35        5ZZ        -0.00679   0.00609   0.00269   0.01864   0.00000
  36        5XY         0.00000   0.00000   0.00000   0.00000  -0.01276
  37        5XZ         0.00000   0.00000   0.00000   0.00000   0.00121
  38        5YZ        -0.00000  -0.00000  -0.00000   0.00000   0.00000
  39 3   H  1S         -0.00023  -0.00001   0.08612   0.11986   0.00000
  40        2S          0.00199   0.00273   0.01735   0.04483   0.00000
  41        3PX         0.00000   0.00000   0.00000   0.00000   0.00557
  42        3PY         0.00011   0.00014  -0.00812  -0.00923   0.00000
  43        3PZ        -0.00002   0.00001  -0.00397  -0.00138   0.00000
  44 4   H  1S         -0.00023  -0.00001   0.08612   0.11986   0.15547
  45        2S          0.00199   0.00273   0.01735   0.04483   0.11167
  46        3PX         0.00009   0.00012  -0.00704  -0.00800  -0.00115
  47        3PY        -0.00005  -0.00007   0.00406   0.00462   0.00388
  48        3PZ        -0.00002   0.00001  -0.00397  -0.00138  -0.00447
  49 5   H  1S         -0.00023  -0.00001   0.08612   0.11986  -0.15547
  50        2S          0.00199   0.00273   0.01735   0.04483  -0.11167
  51        3PX        -0.00009  -0.00012   0.00704   0.00800  -0.00115
  52        3PY        -0.00005  -0.00007   0.00406   0.00462  -0.00388
  53        3PZ        -0.00002   0.00001  -0.00397  -0.00138   0.00447
  54 6   H  1S         -0.00023   0.00001   0.08612  -0.11986   0.15547
  55        2S          0.00199  -0.00273   0.01735  -0.04483   0.11167
  56        3PX         0.00009  -0.00012  -0.00704   0.00800  -0.00115
  57        3PY        -0.00005   0.00007   0.00406  -0.00462   0.00388
  58        3PZ         0.00002   0.00001   0.00397  -0.00138   0.00447
  59 7   H  1S         -0.00023   0.00001   0.08612  -0.11986  -0.15547
  60        2S          0.00199  -0.00273   0.01735  -0.04483  -0.11167
  61        3PX        -0.00009   0.00012   0.00704  -0.00800  -0.00115
  62        3PY        -0.00005   0.00007   0.00406  -0.00462  -0.00388
  63        3PZ         0.00002   0.00001   0.00397  -0.00138  -0.00447
  64 8   H  1S         -0.00023   0.00001   0.08612  -0.11986   0.00000
  65        2S          0.00199  -0.00273   0.01735  -0.04483   0.00000
  66        3PX         0.00000   0.00000   0.00000   0.00000   0.00557
  67        3PY         0.00011  -0.00014  -0.00812   0.00923   0.00000
  68        3PZ         0.00002   0.00001   0.00397  -0.00138   0.00000
                           6         7         8         9        10
                        (E')--O  (A1')--O   (E")--O   (E")--O  (A1')--V
     Eigenvalues --    -0.44302  -0.36391  -0.33891  -0.33891   0.01780
   1 1   C  1S          0.00000   0.01477   0.00000  -0.00000   0.06080
   2        2S          0.00000  -0.03883   0.00000  -0.00000  -0.10682
   3        2PX         0.00000   0.00000   0.31518   0.00000   0.00000
   4        2PY         0.31509   0.00000   0.00000   0.31518   0.00000
   5        2PZ        -0.00000   0.41579   0.00000  -0.00000  -0.11220
   6        3S         -0.00000  -0.03334   0.00000   0.00000  -0.55137
   7        3PX         0.00000   0.00000   0.15724   0.00000   0.00000
   8        3PY         0.13290   0.00000   0.00000   0.15724   0.00000
   9        3PZ        -0.00000   0.18014   0.00000   0.00000  -0.12689
  10        4S         -0.00000   0.02826   0.00000   0.00000   0.85280
  11        4PX         0.00000   0.00000   0.05729   0.00000   0.00000
  12        4PY         0.01539   0.00000   0.00000   0.05729   0.00000
  13        4PZ        -0.00000   0.03911   0.00000  -0.00000   0.11079
  14        5XX        -0.01105   0.01061   0.00000  -0.01202   0.01165
  15        5YY         0.01105   0.01061   0.00000   0.01202   0.01165
  16        5ZZ         0.00000  -0.01507   0.00000  -0.00000   0.00193
  17        5XY         0.00000   0.00000  -0.01388   0.00000   0.00000
  18        5XZ         0.00000   0.00000   0.01887   0.00000   0.00000
  19        5YZ        -0.00121   0.00000   0.00000   0.01887  -0.00000
  20 2   C  1S          0.00000   0.01477   0.00000   0.00000   0.06080
  21        2S          0.00000  -0.03883   0.00000   0.00000  -0.10682
  22        2PX         0.00000   0.00000  -0.31518   0.00000   0.00000
  23        2PY         0.31509   0.00000   0.00000  -0.31518   0.00000
  24        2PZ         0.00000  -0.41579   0.00000  -0.00000   0.11220
  25        3S         -0.00000  -0.03334   0.00000  -0.00000  -0.55137
  26        3PX         0.00000   0.00000  -0.15724   0.00000   0.00000
  27        3PY         0.13290   0.00000   0.00000  -0.15724   0.00000
  28        3PZ         0.00000  -0.18014   0.00000   0.00000   0.12689
  29        4S         -0.00000   0.02826   0.00000  -0.00000   0.85280
  30        4PX         0.00000   0.00000  -0.05729   0.00000   0.00000
  31        4PY         0.01539   0.00000   0.00000  -0.05729   0.00000
  32        4PZ         0.00000  -0.03911   0.00000  -0.00000  -0.11079
  33        5XX        -0.01105   0.01061   0.00000   0.01202   0.01165
  34        5YY         0.01105   0.01061   0.00000  -0.01202   0.01165
  35        5ZZ         0.00000  -0.01507   0.00000   0.00000   0.00193
  36        5XY         0.00000   0.00000   0.01388   0.00000   0.00000
  37        5XZ         0.00000   0.00000   0.01887   0.00000   0.00000
  38        5YZ         0.00121  -0.00000   0.00000   0.01887   0.00000
  39 3   H  1S          0.17952   0.08364   0.00000   0.21910   0.00869
  40        2S          0.12895   0.07333   0.00000   0.19585  -0.05334
  41        3PX         0.00000   0.00000   0.00618   0.00000   0.00000
  42        3PY        -0.00339  -0.00363   0.00000  -0.00415   0.01083
  43        3PZ        -0.00516   0.00659   0.00000  -0.00201   0.00005
  44 4   H  1S         -0.08976   0.08364   0.18974  -0.10955   0.00869
  45        2S         -0.06448   0.07333   0.16961  -0.09793  -0.05334
  46        3PX         0.00388  -0.00315  -0.00156   0.00447   0.00938
  47        3PY         0.00333   0.00182   0.00447   0.00360  -0.00542
  48        3PZ         0.00258   0.00659  -0.00174   0.00101   0.00005
  49 5   H  1S         -0.08976   0.08364  -0.18974  -0.10955   0.00869
  50        2S         -0.06448   0.07333  -0.16961  -0.09793  -0.05334
  51        3PX        -0.00388   0.00315  -0.00156  -0.00447  -0.00938
  52        3PY         0.00333   0.00182  -0.00447   0.00360  -0.00542
  53        3PZ         0.00258   0.00659   0.00174   0.00101   0.00005
  54 6   H  1S         -0.08976   0.08364  -0.18974   0.10955   0.00869
  55        2S         -0.06448   0.07333  -0.16961   0.09793  -0.05334
  56        3PX         0.00388  -0.00315   0.00156  -0.00447   0.00938
  57        3PY         0.00333   0.00182  -0.00447  -0.00360  -0.00542
  58        3PZ        -0.00258  -0.00659  -0.00174   0.00101  -0.00005
  59 7   H  1S         -0.08976   0.08364   0.18974   0.10955   0.00869
  60        2S         -0.06448   0.07333   0.16961   0.09793  -0.05334
  61        3PX        -0.00388   0.00315   0.00156   0.00447  -0.00938
  62        3PY         0.00333   0.00182   0.00447  -0.00360  -0.00542
  63        3PZ        -0.00258  -0.00659   0.00174   0.00101  -0.00005
  64 8   H  1S          0.17952   0.08364   0.00000  -0.21910   0.00869
  65        2S          0.12895   0.07333   0.00000  -0.19585  -0.05334
  66        3PX         0.00000   0.00000  -0.00618   0.00000   0.00000
  67        3PY        -0.00339  -0.00363   0.00000   0.00415   0.01083
  68        3PZ         0.00516  -0.00659   0.00000  -0.00201  -0.00005
                          11        12        13        14        15
                       (A2")--V   (E')--V   (E')--V  (A1')--V   (E")--V
     Eigenvalues --     0.03291   0.05189   0.05189   0.07881   0.09108
   1 1   C  1S         -0.05215  -0.00000   0.00000  -0.02966   0.00000
   2        2S          0.11543  -0.00000   0.00000   0.04310   0.00000
   3        2PX         0.00000   0.00000  -0.16198   0.00000  -0.13255
   4        2PY        -0.00000  -0.16198   0.00000   0.00000   0.00000
   5        2PZ         0.00637   0.00000   0.00000  -0.06306   0.00000
   6        3S          0.37432   0.00000   0.00000   0.39447   0.00000
   7        3PX         0.00000   0.00000  -0.23059   0.00000  -0.11845
   8        3PY        -0.00000  -0.23059   0.00000   0.00000   0.00000
   9        3PZ         0.02752   0.00000   0.00000  -0.03263   0.00000
  10        4S          5.31291   0.00000   0.00000   0.16864   0.00000
  11        4PX         0.00000   0.00000   0.61279   0.00000   1.99126
  12        4PY        -0.00000   0.61279   0.00000   0.00000   0.00000
  13        4PZ        -2.31749  -0.00000   0.00000   1.35102   0.00000
  14        5XX         0.00143   0.00400   0.00000  -0.01470   0.00000
  15        5YY         0.00143  -0.00400   0.00000  -0.01470   0.00000
  16        5ZZ        -0.01552   0.00000   0.00000   0.01339   0.00000
  17        5XY         0.00000   0.00000   0.00462   0.00000   0.00457
  18        5XZ         0.00000   0.00000   0.00565   0.00000  -0.00139
  19        5YZ        -0.00000   0.00565   0.00000   0.00000   0.00000
  20 2   C  1S          0.05215  -0.00000   0.00000  -0.02966   0.00000
  21        2S         -0.11543  -0.00000   0.00000   0.04310   0.00000
  22        2PX         0.00000   0.00000  -0.16198   0.00000   0.13255
  23        2PY         0.00000  -0.16198   0.00000   0.00000   0.00000
  24        2PZ         0.00637  -0.00000   0.00000   0.06306   0.00000
  25        3S         -0.37432   0.00000   0.00000   0.39447   0.00000
  26        3PX         0.00000   0.00000  -0.23059   0.00000   0.11845
  27        3PY         0.00000  -0.23059   0.00000   0.00000   0.00000
  28        3PZ         0.02752  -0.00000   0.00000   0.03263   0.00000
  29        4S         -5.31291   0.00000   0.00000   0.16864   0.00000
  30        4PX         0.00000   0.00000   0.61279   0.00000  -1.99126
  31        4PY         0.00000   0.61279   0.00000   0.00000   0.00000
  32        4PZ        -2.31749   0.00000   0.00000  -1.35102   0.00000
  33        5XX        -0.00143   0.00400   0.00000  -0.01470   0.00000
  34        5YY        -0.00143  -0.00400   0.00000  -0.01470   0.00000
  35        5ZZ         0.01552   0.00000   0.00000   0.01339   0.00000
  36        5XY         0.00000   0.00000   0.00462   0.00000  -0.00457
  37        5XZ         0.00000   0.00000  -0.00565   0.00000  -0.00139
  38        5YZ        -0.00000  -0.00565   0.00000  -0.00000   0.00000
  39 3   H  1S          0.00584  -0.00577   0.00000  -0.03220   0.00000
  40        2S         -0.02079  -0.01951   0.00000  -0.05562   0.00000
  41        3PX         0.00000   0.00000   0.00209   0.00000   0.00156
  42        3PY        -0.00434   0.00737   0.00000  -0.00475   0.00000
  43        3PZ        -0.00660   0.00327   0.00000   0.00543   0.00000
  44 4   H  1S          0.00584   0.00288  -0.00499  -0.03220  -0.02421
  45        2S         -0.02079   0.00976  -0.01690  -0.05562  -0.14850
  46        3PX        -0.00375  -0.00228   0.00605  -0.00412   0.00570
  47        3PY         0.00217   0.00341  -0.00228   0.00238  -0.00239
  48        3PZ        -0.00660  -0.00163   0.00283   0.00543   0.00523
  49 5   H  1S          0.00584   0.00288   0.00499  -0.03220   0.02421
  50        2S         -0.02079   0.00976   0.01690  -0.05562   0.14850
  51        3PX         0.00375   0.00228   0.00605   0.00412   0.00570
  52        3PY         0.00217   0.00341   0.00228   0.00238   0.00239
  53        3PZ        -0.00660  -0.00163  -0.00283   0.00543  -0.00523
  54 6   H  1S         -0.00584   0.00288  -0.00499  -0.03220   0.02421
  55        2S          0.02079   0.00976  -0.01690  -0.05562   0.14850
  56        3PX         0.00375  -0.00228   0.00605  -0.00412  -0.00570
  57        3PY        -0.00217   0.00341  -0.00228   0.00238   0.00239
  58        3PZ        -0.00660   0.00163  -0.00283  -0.00543   0.00523
  59 7   H  1S         -0.00584   0.00288   0.00499  -0.03220  -0.02421
  60        2S          0.02079   0.00976   0.01690  -0.05562  -0.14850
  61        3PX        -0.00375   0.00228   0.00605   0.00412  -0.00570
  62        3PY        -0.00217   0.00341   0.00228   0.00238  -0.00239
  63        3PZ        -0.00660   0.00163   0.00283  -0.00543  -0.00523
  64 8   H  1S         -0.00584  -0.00577   0.00000  -0.03220   0.00000
  65        2S          0.02079  -0.01951   0.00000  -0.05562   0.00000
  66        3PX         0.00000   0.00000   0.00209   0.00000  -0.00156
  67        3PY         0.00434   0.00737   0.00000  -0.00475   0.00000
  68        3PZ        -0.00660  -0.00327   0.00000  -0.00543   0.00000
                          16        17        18        19        20
                        (E")--V  (A2")--V   (E')--V   (E')--V  (A2")--V
     Eigenvalues --     0.09108   0.14220   0.14688   0.14688   0.26655
   1 1   C  1S         -0.00000   0.04130   0.00000   0.00000   0.05718
   2        2S          0.00000  -0.10660   0.00000   0.00000  -0.06594
   3        2PX         0.00000   0.00000   0.00000  -0.19218   0.00000
   4        2PY        -0.13255  -0.00000  -0.19218   0.00000  -0.00000
   5        2PZ         0.00000  -0.08696  -0.00000   0.00000   0.36621
   6        3S          0.00000  -0.18266  -0.00000   0.00000  -1.10555
   7        3PX         0.00000   0.00000   0.00000  -0.75351   0.00000
   8        3PY        -0.11845  -0.00000  -0.75351   0.00000  -0.00000
   9        3PZ         0.00000  -0.39349  -0.00000   0.00000   1.66109
  10        4S         -0.00000  27.88421  -0.00000   0.00000  11.55485
  11        4PX         0.00000   0.00000   0.00000  -0.32592   0.00000
  12        4PY         1.99126   0.00000  -0.32592   0.00000  -0.00000
  13        4PZ         0.00000  -8.46254   0.00000   0.00000  -3.61818
  14        5XX         0.00396   0.00773  -0.02226   0.00000  -0.01345
  15        5YY        -0.00396   0.00773   0.02226   0.00000  -0.01345
  16        5ZZ        -0.00000   0.00415   0.00000   0.00000   0.03205
  17        5XY         0.00000   0.00000   0.00000  -0.02571   0.00000
  18        5XZ         0.00000   0.00000   0.00000   0.01687   0.00000
  19        5YZ        -0.00139  -0.00000   0.01687   0.00000  -0.00000
  20 2   C  1S          0.00000  -0.04130   0.00000   0.00000  -0.05718
  21        2S         -0.00000   0.10660   0.00000   0.00000   0.06594
  22        2PX         0.00000   0.00000   0.00000  -0.19218   0.00000
  23        2PY         0.13255   0.00000  -0.19218   0.00000   0.00000
  24        2PZ         0.00000  -0.08696   0.00000   0.00000   0.36621
  25        3S         -0.00000   0.18266  -0.00000   0.00000   1.10555
  26        3PX         0.00000   0.00000   0.00000  -0.75351   0.00000
  27        3PY         0.11845   0.00000  -0.75351   0.00000   0.00000
  28        3PZ         0.00000  -0.39349   0.00000   0.00000   1.66109
  29        4S          0.00000 -27.88421  -0.00000   0.00000 -11.55485
  30        4PX         0.00000   0.00000   0.00000  -0.32592   0.00000
  31        4PY        -1.99126  -0.00000  -0.32592   0.00000   0.00000
  32        4PZ         0.00000  -8.46254  -0.00000   0.00000  -3.61818
  33        5XX        -0.00396  -0.00773  -0.02226   0.00000   0.01345
  34        5YY         0.00396  -0.00773   0.02226   0.00000   0.01345
  35        5ZZ         0.00000  -0.00415   0.00000   0.00000  -0.03205
  36        5XY         0.00000   0.00000   0.00000  -0.02571   0.00000
  37        5XZ         0.00000   0.00000   0.00000  -0.01687   0.00000
  38        5YZ        -0.00139  -0.00000  -0.01687   0.00000  -0.00000
  39 3   H  1S         -0.02796   0.03673   0.13571   0.00000  -0.05502
  40        2S         -0.17147  -0.13910   1.23940   0.00000  -0.46770
  41        3PX         0.00000   0.00000   0.00000  -0.01264   0.00000
  42        3PY         0.00708   0.01021  -0.00066   0.00000  -0.00291
  43        3PZ         0.00603   0.00256   0.00041   0.00000   0.01189
  44 4   H  1S          0.01398   0.03673  -0.06785   0.11753  -0.05502
  45        2S          0.08574  -0.13910  -0.61970   1.07336  -0.46770
  46        3PX        -0.00239   0.00884  -0.00519  -0.00365  -0.00252
  47        3PY         0.00294  -0.00511  -0.00964  -0.00519   0.00145
  48        3PZ        -0.00302   0.00256  -0.00020   0.00035   0.01189
  49 5   H  1S          0.01398   0.03673  -0.06785  -0.11753  -0.05502
  50        2S          0.08574  -0.13910  -0.61970  -1.07336  -0.46770
  51        3PX         0.00239  -0.00884   0.00519  -0.00365   0.00252
  52        3PY         0.00294  -0.00511  -0.00964   0.00519   0.00145
  53        3PZ        -0.00302   0.00256  -0.00020  -0.00035   0.01189
  54 6   H  1S         -0.01398  -0.03673  -0.06785   0.11753   0.05502
  55        2S         -0.08574   0.13910  -0.61970   1.07336   0.46770
  56        3PX         0.00239  -0.00884  -0.00519  -0.00365   0.00252
  57        3PY        -0.00294   0.00511  -0.00964  -0.00519  -0.00145
  58        3PZ        -0.00302   0.00256   0.00020  -0.00035   0.01189
  59 7   H  1S         -0.01398  -0.03673  -0.06785  -0.11753   0.05502
  60        2S         -0.08574   0.13910  -0.61970  -1.07336   0.46770
  61        3PX        -0.00239   0.00884   0.00519  -0.00365  -0.00252
  62        3PY        -0.00294   0.00511  -0.00964   0.00519  -0.00145
  63        3PZ        -0.00302   0.00256   0.00020   0.00035   0.01189
  64 8   H  1S          0.02796  -0.03673   0.13571   0.00000   0.05502
  65        2S          0.17147   0.13910   1.23940   0.00000   0.46770
  66        3PX         0.00000   0.00000   0.00000  -0.01264   0.00000
  67        3PY        -0.00708  -0.01021  -0.00066   0.00000   0.00291
  68        3PZ         0.00603   0.00256  -0.00041   0.00000   0.01189
                          21        22        23        24        25
                        (E")--V   (E")--V  (A1')--V  (A2")--V  (A1')--V
     Eigenvalues --     0.26820   0.26820   0.27858   0.35036   0.60680
   1 1   C  1S         -0.00000   0.00000  -0.08194  -0.13093   0.02057
   2        2S          0.00000   0.00000   0.13073   0.13552  -0.00175
   3        2PX         0.00000  -0.28797   0.00000   0.00000   0.00000
   4        2PY        -0.28797   0.00000  -0.00000   0.00000  -0.00000
   5        2PZ        -0.00000   0.00000   0.11986   0.01281  -0.62364
   6        3S          0.00000   0.00000   1.64314   2.99077   0.33740
   7        3PX         0.00000  -1.40517   0.00000   0.00000   0.00000
   8        3PY        -1.40517   0.00000  -0.00000   0.00000   0.00000
   9        3PZ        -0.00000   0.00000   0.65316  -0.49325   1.05853
  10        4S         -0.00000   0.00000   1.15765  21.67727  -0.17880
  11        4PX         0.00000  -0.88908   0.00000   0.00000   0.00000
  12        4PY        -0.88908   0.00000  -0.00000   0.00000  -0.00000
  13        4PZ         0.00000   0.00000  -0.56464  -5.80872  -0.69915
  14        5XX        -0.01154   0.00000  -0.00750  -0.00740  -0.02790
  15        5YY         0.01154   0.00000  -0.00750  -0.00740  -0.02790
  16        5ZZ        -0.00000   0.00000   0.01101  -0.00733   0.10971
  17        5XY         0.00000  -0.01333   0.00000   0.00000   0.00000
  18        5XZ         0.00000  -0.00748   0.00000   0.00000   0.00000
  19        5YZ        -0.00748   0.00000   0.00000   0.00000  -0.00000
  20 2   C  1S          0.00000   0.00000  -0.08194   0.13093   0.02057
  21        2S         -0.00000   0.00000   0.13073  -0.13552  -0.00175
  22        2PX         0.00000   0.28797   0.00000   0.00000   0.00000
  23        2PY         0.28797   0.00000  -0.00000  -0.00000  -0.00000
  24        2PZ        -0.00000   0.00000  -0.11986   0.01281   0.62364
  25        3S         -0.00000   0.00000   1.64314  -2.99077   0.33740
  26        3PX         0.00000   1.40517   0.00000   0.00000   0.00000
  27        3PY         1.40517   0.00000  -0.00000  -0.00000   0.00000
  28        3PZ        -0.00000   0.00000  -0.65316  -0.49325  -1.05853
  29        4S          0.00000   0.00000   1.15765 -21.67727  -0.17880
  30        4PX         0.00000   0.88908   0.00000   0.00000   0.00000
  31        4PY         0.88908   0.00000  -0.00000  -0.00000  -0.00000
  32        4PZ         0.00000   0.00000   0.56464  -5.80872   0.69915
  33        5XX         0.01154   0.00000  -0.00750   0.00740  -0.02790
  34        5YY        -0.01154   0.00000  -0.00750   0.00740  -0.02790
  35        5ZZ         0.00000   0.00000   0.01101   0.00733   0.10971
  36        5XY         0.00000   0.01333   0.00000   0.00000   0.00000
  37        5XZ         0.00000  -0.00748   0.00000   0.00000   0.00000
  38        5YZ        -0.00748   0.00000  -0.00000   0.00000   0.00000
  39 3   H  1S          0.09804   0.00000  -0.06446  -0.06427  -0.10322
  40        2S          1.66965   0.00000  -1.34946  -1.52990  -0.02375
  41        3PX         0.00000  -0.01373   0.00000   0.00000   0.00000
  42        3PY         0.00125   0.00000  -0.00306  -0.00467   0.01120
  43        3PZ        -0.00051   0.00000   0.00446  -0.00076   0.02547
  44 4   H  1S         -0.04902   0.08491  -0.06446  -0.06427  -0.10322
  45        2S         -0.83483   1.44596  -1.34946  -1.52990  -0.02375
  46        3PX        -0.00649  -0.00249  -0.00265  -0.00404   0.00970
  47        3PY        -0.00999  -0.00649   0.00153   0.00233  -0.00560
  48        3PZ         0.00026  -0.00045   0.00446  -0.00076   0.02547
  49 5   H  1S         -0.04902  -0.08491  -0.06446  -0.06427  -0.10322
  50        2S         -0.83483  -1.44596  -1.34946  -1.52990  -0.02375
  51        3PX         0.00649  -0.00249   0.00265   0.00404  -0.00970
  52        3PY        -0.00999   0.00649   0.00153   0.00233  -0.00560
  53        3PZ         0.00026   0.00045   0.00446  -0.00076   0.02547
  54 6   H  1S          0.04902  -0.08491  -0.06446   0.06427  -0.10322
  55        2S          0.83483  -1.44596  -1.34946   1.52990  -0.02375
  56        3PX         0.00649   0.00249  -0.00265   0.00404   0.00970
  57        3PY         0.00999   0.00649   0.00153  -0.00233  -0.00560
  58        3PZ         0.00026  -0.00045  -0.00446  -0.00076  -0.02547
  59 7   H  1S          0.04902   0.08491  -0.06446   0.06427  -0.10322
  60        2S          0.83483   1.44596  -1.34946   1.52990  -0.02375
  61        3PX        -0.00649   0.00249   0.00265  -0.00404  -0.00970
  62        3PY         0.00999  -0.00649   0.00153  -0.00233  -0.00560
  63        3PZ         0.00026   0.00045  -0.00446  -0.00076  -0.02547
  64 8   H  1S         -0.09804   0.00000  -0.06446   0.06427  -0.10322
  65        2S         -1.66965   0.00000  -1.34946   1.52990  -0.02375
  66        3PX         0.00000   0.01373   0.00000   0.00000   0.00000
  67        3PY        -0.00125   0.00000  -0.00306   0.00467   0.01120
  68        3PZ        -0.00051   0.00000  -0.00446  -0.00076  -0.02547
                          26        27        28        29        30
                        (E')--V   (E')--V   (E")--V   (E")--V  (A2")--V
     Eigenvalues --     0.64674   0.64674   0.70198   0.70198   0.71441
   1 1   C  1S          0.00000   0.00000   0.00000   0.00000  -0.02894
   2        2S          0.00000  -0.00000   0.00000  -0.00000   0.20750
   3        2PX        -0.65999   0.00000  -0.69097   0.00000   0.00000
   4        2PY         0.00000  -0.65999   0.00000  -0.69097  -0.00000
   5        2PZ         0.00000   0.00000   0.00000   0.00000  -0.82265
   6        3S          0.00000  -0.00000   0.00000   0.00000  -1.14255
   7        3PX         0.95200   0.00000   2.02682   0.00000   0.00000
   8        3PY         0.00000   0.95200   0.00000   2.02682   0.00000
   9        3PZ         0.00000  -0.00000   0.00000  -0.00000   2.01465
  10        4S          0.00000  -0.00000   0.00000   0.00000   2.29404
  11        4PX        -0.31172   0.00000  -0.55262   0.00000   0.00000
  12        4PY         0.00000  -0.31172   0.00000  -0.55262  -0.00000
  13        4PZ         0.00000   0.00000   0.00000  -0.00000  -0.90750
  14        5XX         0.00000   0.03127   0.00000   0.02600   0.03061
  15        5YY         0.00000  -0.03127   0.00000  -0.02600   0.03061
  16        5ZZ         0.00000  -0.00000   0.00000   0.00000  -0.08935
  17        5XY         0.03611   0.00000   0.03002   0.00000   0.00000
  18        5XZ        -0.01426   0.00000   0.02088   0.00000   0.00000
  19        5YZ         0.00000  -0.01426   0.00000   0.02088   0.00000
  20 2   C  1S          0.00000   0.00000   0.00000  -0.00000   0.02894
  21        2S          0.00000  -0.00000   0.00000   0.00000  -0.20750
  22        2PX        -0.65999   0.00000   0.69097   0.00000   0.00000
  23        2PY         0.00000  -0.65999   0.00000   0.69097   0.00000
  24        2PZ         0.00000  -0.00000   0.00000   0.00000  -0.82265
  25        3S          0.00000  -0.00000   0.00000  -0.00000   1.14255
  26        3PX         0.95200   0.00000  -2.02682   0.00000   0.00000
  27        3PY         0.00000   0.95200   0.00000  -2.02682  -0.00000
  28        3PZ         0.00000   0.00000   0.00000  -0.00000   2.01465
  29        4S          0.00000  -0.00000   0.00000  -0.00000  -2.29404
  30        4PX        -0.31172   0.00000   0.55262   0.00000   0.00000
  31        4PY         0.00000  -0.31172   0.00000   0.55262   0.00000
  32        4PZ         0.00000  -0.00000   0.00000  -0.00000  -0.90750
  33        5XX         0.00000   0.03127   0.00000  -0.02600  -0.03061
  34        5YY         0.00000  -0.03127   0.00000   0.02600  -0.03061
  35        5ZZ         0.00000  -0.00000   0.00000  -0.00000   0.08935
  36        5XY         0.03611   0.00000  -0.03002   0.00000   0.00000
  37        5XZ         0.01426   0.00000   0.02088   0.00000   0.00000
  38        5YZ         0.00000   0.01426   0.00000   0.02088   0.00000
  39 3   H  1S          0.00000  -0.22826   0.00000  -0.16557  -0.07845
  40        2S          0.00000  -0.03679   0.00000  -0.70048  -0.24729
  41        3PX         0.01282   0.00000   0.03053   0.00000   0.00000
  42        3PY         0.00000   0.04786   0.00000   0.04727   0.01157
  43        3PZ         0.00000  -0.00617   0.00000   0.04729  -0.01814
  44 4   H  1S         -0.19768   0.11413  -0.14339   0.08279  -0.07845
  45        2S         -0.03186   0.01840  -0.60663   0.35024  -0.24729
  46        3PX         0.03910  -0.01517   0.04308  -0.00725   0.01002
  47        3PY        -0.01517   0.02158  -0.00725   0.03471  -0.00579
  48        3PZ        -0.00534   0.00308   0.04096  -0.02365  -0.01814
  49 5   H  1S          0.19768   0.11413   0.14339   0.08279  -0.07845
  50        2S          0.03186   0.01840   0.60663   0.35024  -0.24729
  51        3PX         0.03910   0.01517   0.04308   0.00725  -0.01002
  52        3PY         0.01517   0.02158   0.00725   0.03471  -0.00579
  53        3PZ         0.00534   0.00308  -0.04096  -0.02365  -0.01814
  54 6   H  1S         -0.19768   0.11413   0.14339  -0.08279   0.07845
  55        2S         -0.03186   0.01840   0.60663  -0.35024   0.24729
  56        3PX         0.03910  -0.01517  -0.04308   0.00725  -0.01002
  57        3PY        -0.01517   0.02158   0.00725  -0.03471   0.00579
  58        3PZ         0.00534  -0.00308   0.04096  -0.02365  -0.01814
  59 7   H  1S          0.19768   0.11413  -0.14339  -0.08279   0.07845
  60        2S          0.03186   0.01840  -0.60663  -0.35024   0.24729
  61        3PX         0.03910   0.01517  -0.04308  -0.00725   0.01002
  62        3PY         0.01517   0.02158  -0.00725  -0.03471   0.00579
  63        3PZ        -0.00534  -0.00308  -0.04096  -0.02365  -0.01814
  64 8   H  1S          0.00000  -0.22826   0.00000   0.16557   0.07845
  65        2S          0.00000  -0.03679   0.00000   0.70048   0.24729
  66        3PX         0.01282   0.00000  -0.03053   0.00000   0.00000
  67        3PY         0.00000   0.04786   0.00000  -0.04727  -0.01157
  68        3PZ         0.00000   0.00617   0.00000   0.04729  -0.01814
                          31        32        33        34        35
                        (E')--V   (E')--V   (E")--V   (E")--V  (A1')--V
     Eigenvalues --     0.86197   0.86197   0.97623   0.97623   1.00960
   1 1   C  1S          0.00000   0.00000  -0.00000   0.00000  -0.06814
   2        2S          0.00000   0.00000   0.00000   0.00000  -0.64005
   3        2PX         0.00000   0.39392   0.00000   0.35043   0.00000
   4        2PY         0.39392   0.00000   0.35043   0.00000   0.00000
   5        2PZ         0.00000   0.00000   0.00000   0.00000   0.26257
   6        3S         -0.00000   0.00000  -0.00000   0.00000   1.05330
   7        3PX         0.00000  -0.69279   0.00000  -0.69153   0.00000
   8        3PY        -0.69279   0.00000  -0.69153   0.00000  -0.00000
   9        3PZ        -0.00000   0.00000  -0.00000   0.00000  -0.08795
  10        4S         -0.00000   0.00000  -0.00000   0.00000  -0.45231
  11        4PX         0.00000  -0.20690   0.00000  -0.80811   0.00000
  12        4PY        -0.20690   0.00000  -0.80811   0.00000  -0.00000
  13        4PZ         0.00000   0.00000  -0.00000   0.00000   0.14309
  14        5XX         0.09881   0.00000   0.17398   0.00000  -0.09174
  15        5YY        -0.09881   0.00000  -0.17398   0.00000  -0.09174
  16        5ZZ         0.00000   0.00000   0.00000   0.00000  -0.03651
  17        5XY         0.00000   0.11410   0.00000   0.20089   0.00000
  18        5XZ         0.00000  -0.19786   0.00000  -0.04845   0.00000
  19        5YZ        -0.19786   0.00000  -0.04845   0.00000  -0.00000
  20 2   C  1S          0.00000   0.00000   0.00000   0.00000  -0.06814
  21        2S          0.00000   0.00000  -0.00000   0.00000  -0.64005
  22        2PX         0.00000   0.39392   0.00000  -0.35043   0.00000
  23        2PY         0.39392   0.00000  -0.35043   0.00000   0.00000
  24        2PZ        -0.00000   0.00000   0.00000   0.00000  -0.26257
  25        3S         -0.00000   0.00000   0.00000   0.00000   1.05330
  26        3PX         0.00000  -0.69279   0.00000   0.69153   0.00000
  27        3PY        -0.69279   0.00000   0.69153   0.00000  -0.00000
  28        3PZ         0.00000   0.00000  -0.00000   0.00000   0.08795
  29        4S         -0.00000   0.00000   0.00000   0.00000  -0.45231
  30        4PX         0.00000  -0.20690   0.00000   0.80811   0.00000
  31        4PY        -0.20690   0.00000   0.80811   0.00000  -0.00000
  32        4PZ        -0.00000   0.00000  -0.00000   0.00000  -0.14309
  33        5XX         0.09881   0.00000  -0.17398   0.00000  -0.09174
  34        5YY        -0.09881   0.00000   0.17398   0.00000  -0.09174
  35        5ZZ         0.00000   0.00000  -0.00000   0.00000  -0.03651
  36        5XY         0.00000   0.11410   0.00000  -0.20089   0.00000
  37        5XZ         0.00000   0.19786   0.00000  -0.04845   0.00000
  38        5YZ         0.19786   0.00000  -0.04845   0.00000   0.00000
  39 3   H  1S         -0.60051   0.00000  -0.66552   0.00000  -0.49386
  40        2S          1.29038   0.00000   1.47798   0.00000   0.27862
  41        3PX         0.00000   0.00829   0.00000   0.07023   0.00000
  42        3PY        -0.04267   0.00000  -0.04532   0.00000  -0.03129
  43        3PZ        -0.05354   0.00000  -0.01033   0.00000  -0.01126
  44 4   H  1S          0.30025  -0.52005   0.33276  -0.57636  -0.49386
  45        2S         -0.64519   1.11750  -0.73899   1.27996   0.27862
  46        3PX         0.02206  -0.02993   0.05003  -0.01643  -0.02710
  47        3PY        -0.00445   0.02206   0.04134   0.05003   0.01565
  48        3PZ         0.02677  -0.04637   0.00517  -0.00895  -0.01126
  49 5   H  1S          0.30025   0.52005   0.33276   0.57636  -0.49386
  50        2S         -0.64519  -1.11750  -0.73899  -1.27996   0.27862
  51        3PX        -0.02206  -0.02993  -0.05003  -0.01643   0.02710
  52        3PY        -0.00445  -0.02206   0.04134  -0.05003   0.01565
  53        3PZ         0.02677   0.04637   0.00517   0.00895  -0.01126
  54 6   H  1S          0.30025  -0.52005  -0.33276   0.57636  -0.49386
  55        2S         -0.64519   1.11750   0.73899  -1.27996   0.27862
  56        3PX         0.02206  -0.02993  -0.05003   0.01643  -0.02710
  57        3PY        -0.00445   0.02206  -0.04134  -0.05003   0.01565
  58        3PZ        -0.02677   0.04637   0.00517  -0.00895   0.01126
  59 7   H  1S          0.30025   0.52005  -0.33276  -0.57636  -0.49386
  60        2S         -0.64519  -1.11750   0.73899   1.27996   0.27862
  61        3PX        -0.02206  -0.02993   0.05003   0.01643   0.02710
  62        3PY        -0.00445  -0.02206  -0.04134   0.05003   0.01565
  63        3PZ        -0.02677  -0.04637   0.00517   0.00895   0.01126
  64 8   H  1S         -0.60051   0.00000   0.66552   0.00000  -0.49386
  65        2S          1.29038   0.00000  -1.47798   0.00000   0.27862
  66        3PX         0.00000   0.00829   0.00000  -0.07023   0.00000
  67        3PY        -0.04267   0.00000   0.04532   0.00000  -0.03129
  68        3PZ         0.05354   0.00000  -0.01033   0.00000   0.01126
                          36        37        38        39        40
                       (A1')--V  (A2")--V   (E')--V   (E')--V  (A2")--V
     Eigenvalues --     1.06136   1.12530   1.30022   1.30022   1.51182
   1 1   C  1S         -0.02390   0.02367   0.00000  -0.00000  -0.13737
   2        2S         -1.34699  -0.96604   0.00000  -0.00000  -1.74686
   3        2PX         0.00000   0.00000   0.08750   0.00000   0.00000
   4        2PY         0.00000   0.00000   0.00000   0.08750   0.00000
   5        2PZ        -0.17680  -0.16017   0.00000  -0.00000  -0.00334
   6        3S          3.26837   3.20560   0.00000   0.00000   6.72268
   7        3PX         0.00000   0.00000  -0.12350   0.00000   0.00000
   8        3PY        -0.00000  -0.00000   0.00000  -0.12350  -0.00000
   9        3PZ         0.67156   0.30276   0.00000   0.00000  -1.75311
  10        4S          0.55412  13.30149   0.00000   0.00000  -1.42623
  11        4PX         0.00000   0.00000  -0.08532   0.00000   0.00000
  12        4PY        -0.00000  -0.00000   0.00000  -0.08532  -0.00000
  13        4PZ        -0.11239  -3.53099   0.00000  -0.00000   0.57157
  14        5XX         0.02709   0.04323   0.00000   0.28233  -0.07098
  15        5YY         0.02709   0.04323   0.00000  -0.28233  -0.07098
  16        5ZZ        -0.18186  -0.05111   0.00000  -0.00000  -0.00514
  17        5XY         0.00000   0.00000   0.32600   0.00000   0.00000
  18        5XZ         0.00000   0.00000   0.38255   0.00000   0.00000
  19        5YZ        -0.00000  -0.00000   0.00000   0.38255  -0.00000
  20 2   C  1S         -0.02390  -0.02367   0.00000  -0.00000   0.13737
  21        2S         -1.34699   0.96604   0.00000  -0.00000   1.74686
  22        2PX         0.00000   0.00000   0.08750   0.00000   0.00000
  23        2PY         0.00000  -0.00000   0.00000   0.08750  -0.00000
  24        2PZ         0.17680  -0.16017   0.00000   0.00000  -0.00334
  25        3S          3.26837  -3.20560   0.00000   0.00000  -6.72268
  26        3PX         0.00000   0.00000  -0.12350   0.00000   0.00000
  27        3PY        -0.00000   0.00000   0.00000  -0.12350   0.00000
  28        3PZ        -0.67156   0.30276   0.00000  -0.00000  -1.75311
  29        4S          0.55412 -13.30149   0.00000   0.00000   1.42623
  30        4PX         0.00000   0.00000  -0.08532   0.00000   0.00000
  31        4PY        -0.00000   0.00000   0.00000  -0.08532   0.00000
  32        4PZ         0.11239  -3.53099   0.00000   0.00000   0.57157
  33        5XX         0.02709  -0.04323   0.00000   0.28233   0.07098
  34        5YY         0.02709  -0.04323   0.00000  -0.28233   0.07098
  35        5ZZ        -0.18186   0.05111   0.00000  -0.00000   0.00514
  36        5XY         0.00000   0.00000   0.32600   0.00000   0.00000
  37        5XZ         0.00000   0.00000  -0.38255   0.00000   0.00000
  38        5YZ         0.00000  -0.00000   0.00000  -0.38255  -0.00000
  39 3   H  1S          0.21573   0.46707   0.00000  -0.11968  -0.42397
  40        2S         -1.36003  -1.66866   0.00000   0.30389  -0.65570
  41        3PX         0.00000   0.00000   0.17010   0.00000   0.00000
  42        3PY         0.04378   0.05643   0.00000  -0.05944   0.00071
  43        3PZ        -0.01142   0.00846   0.00000   0.15023  -0.01247
  44 4   H  1S          0.21573   0.46707  -0.10365   0.05984  -0.42397
  45        2S         -1.36003  -1.66866   0.26318  -0.15194  -0.65570
  46        3PX         0.03791   0.04887  -0.00205   0.09939   0.00062
  47        3PY        -0.02189  -0.02822   0.09939   0.11271  -0.00036
  48        3PZ        -0.01142   0.00846   0.13010  -0.07511  -0.01247
  49 5   H  1S          0.21573   0.46707   0.10365   0.05984  -0.42397
  50        2S         -1.36003  -1.66866  -0.26318  -0.15194  -0.65570
  51        3PX        -0.03791  -0.04887  -0.00205  -0.09939  -0.00062
  52        3PY        -0.02189  -0.02822  -0.09939   0.11271  -0.00036
  53        3PZ        -0.01142   0.00846  -0.13010  -0.07511  -0.01247
  54 6   H  1S          0.21573  -0.46707  -0.10365   0.05984   0.42397
  55        2S         -1.36003   1.66866   0.26318  -0.15194   0.65570
  56        3PX         0.03791  -0.04887  -0.00205   0.09939  -0.00062
  57        3PY        -0.02189   0.02822   0.09939   0.11271   0.00036
  58        3PZ         0.01142   0.00846  -0.13010   0.07511  -0.01247
  59 7   H  1S          0.21573  -0.46707   0.10365   0.05984   0.42397
  60        2S         -1.36003   1.66866  -0.26318  -0.15194   0.65570
  61        3PX        -0.03791   0.04887  -0.00205  -0.09939   0.00062
  62        3PY        -0.02189   0.02822  -0.09939   0.11271   0.00036
  63        3PZ         0.01142   0.00846   0.13010   0.07511  -0.01247
  64 8   H  1S          0.21573  -0.46707   0.00000  -0.11968   0.42397
  65        2S         -1.36003   1.66866   0.00000   0.30389   0.65570
  66        3PX         0.00000   0.00000   0.17010   0.00000   0.00000
  67        3PY         0.04378  -0.05643   0.00000  -0.05944  -0.00071
  68        3PZ         0.01142   0.00846   0.00000  -0.15023  -0.01247
                          41        42        43        44        45
                        (E")--V   (E")--V  (A1')--V   (E')--V   (E')--V
     Eigenvalues --     1.71711   1.71711   1.94353   2.01902   2.01902
   1 1   C  1S          0.00000   0.00000   0.01836   0.00000   0.00000
   2        2S          0.00000   0.00000  -0.47422   0.00000  -0.00000
   3        2PX        -0.06154   0.00000   0.00000   0.07648   0.00000
   4        2PY         0.00000  -0.06154   0.00000   0.00000   0.07648
   5        2PZ         0.00000   0.00000   0.34509   0.00000   0.00000
   6        3S          0.00000  -0.00000   0.31310   0.00000   0.00000
   7        3PX         0.56984   0.00000   0.00000  -0.28927   0.00000
   8        3PY         0.00000   0.56984   0.00000   0.00000  -0.28927
   9        3PZ         0.00000   0.00000  -0.47659   0.00000  -0.00000
  10        4S          0.00000  -0.00000   0.15122   0.00000   0.00000
  11        4PX        -0.06031   0.00000   0.00000   0.10386   0.00000
  12        4PY         0.00000  -0.06031  -0.00000   0.00000   0.10386
  13        4PZ         0.00000   0.00000   0.18795   0.00000   0.00000
  14        5XX         0.00000  -0.15674  -0.24889   0.00000   0.33784
  15        5YY         0.00000   0.15674  -0.24889   0.00000  -0.33784
  16        5ZZ         0.00000   0.00000   0.61423   0.00000   0.00000
  17        5XY        -0.18099   0.00000   0.00000   0.39010   0.00000
  18        5XZ        -0.40508   0.00000   0.00000  -0.38354   0.00000
  19        5YZ         0.00000  -0.40508   0.00000   0.00000  -0.38354
  20 2   C  1S          0.00000  -0.00000   0.01836   0.00000   0.00000
  21        2S          0.00000  -0.00000  -0.47422   0.00000  -0.00000
  22        2PX         0.06154   0.00000   0.00000   0.07648   0.00000
  23        2PY         0.00000   0.06154   0.00000   0.00000   0.07648
  24        2PZ         0.00000   0.00000  -0.34509   0.00000  -0.00000
  25        3S          0.00000   0.00000   0.31310   0.00000   0.00000
  26        3PX        -0.56984   0.00000   0.00000  -0.28927   0.00000
  27        3PY         0.00000  -0.56984   0.00000   0.00000  -0.28927
  28        3PZ         0.00000   0.00000   0.47659   0.00000   0.00000
  29        4S          0.00000   0.00000   0.15122   0.00000   0.00000
  30        4PX         0.06031   0.00000   0.00000   0.10386   0.00000
  31        4PY         0.00000   0.06031  -0.00000   0.00000   0.10386
  32        4PZ         0.00000   0.00000  -0.18795   0.00000  -0.00000
  33        5XX         0.00000   0.15674  -0.24889   0.00000   0.33784
  34        5YY         0.00000  -0.15674  -0.24889   0.00000  -0.33784
  35        5ZZ         0.00000  -0.00000   0.61423   0.00000   0.00000
  36        5XY         0.18099   0.00000   0.00000   0.39010   0.00000
  37        5XZ        -0.40508   0.00000   0.00000   0.38354   0.00000
  38        5YZ         0.00000  -0.40508  -0.00000   0.00000   0.38354
  39 3   H  1S          0.00000  -0.11273   0.18811   0.00000   0.46830
  40        2S          0.00000  -0.15569  -0.20159   0.00000  -0.20712
  41        3PX        -0.06598   0.00000   0.00000   0.09966   0.00000
  42        3PY         0.00000   0.13394   0.04600   0.00000   0.20895
  43        3PZ         0.00000  -0.35201   0.12328   0.00000   0.10270
  44 4   H  1S         -0.09762   0.05636   0.18811   0.40556  -0.23415
  45        2S         -0.13483   0.07784  -0.20159  -0.17937   0.10356
  46        3PX         0.08396  -0.08657   0.03984   0.18163  -0.04732
  47        3PY        -0.08657  -0.01600  -0.02300  -0.04732   0.12698
  48        3PZ        -0.30485   0.17600   0.12328   0.08894  -0.05135
  49 5   H  1S          0.09762   0.05636   0.18811  -0.40556  -0.23415
  50        2S          0.13483   0.07784  -0.20159   0.17937   0.10356
  51        3PX         0.08396   0.08657  -0.03984   0.18163   0.04732
  52        3PY         0.08657  -0.01600  -0.02300   0.04732   0.12698
  53        3PZ         0.30485   0.17600   0.12328  -0.08894  -0.05135
  54 6   H  1S          0.09762  -0.05636   0.18811   0.40556  -0.23415
  55        2S          0.13483  -0.07784  -0.20159  -0.17937   0.10356
  56        3PX        -0.08396   0.08657   0.03984   0.18163  -0.04732
  57        3PY         0.08657   0.01600  -0.02300  -0.04732   0.12698
  58        3PZ        -0.30485   0.17600  -0.12328  -0.08894   0.05135
  59 7   H  1S         -0.09762  -0.05636   0.18811  -0.40556  -0.23415
  60        2S         -0.13483  -0.07784  -0.20159   0.17937   0.10356
  61        3PX        -0.08396  -0.08657  -0.03984   0.18163   0.04732
  62        3PY        -0.08657   0.01600  -0.02300   0.04732   0.12698
  63        3PZ         0.30485   0.17600  -0.12328   0.08894   0.05135
  64 8   H  1S          0.00000   0.11273   0.18811   0.00000   0.46830
  65        2S          0.00000   0.15569  -0.20159   0.00000  -0.20712
  66        3PX         0.06598   0.00000   0.00000   0.09966   0.00000
  67        3PY         0.00000  -0.13394   0.04600   0.00000   0.20895
  68        3PZ         0.00000  -0.35201  -0.12328   0.00000  -0.10270
                          46        47        48        49        50
                       (A2')--V  (A1")--V   (E")--V   (E")--V   (E')--V
     Eigenvalues --     2.04140   2.04252   2.14075   2.14075   2.24876
   1 1   C  1S          0.00000   0.00000   0.00000  -0.00000   0.00000
   2        2S          0.00000   0.00000   0.00000   0.00000   0.00000
   3        2PX         0.00000  -0.00000  -0.14500   0.00000  -0.06501
   4        2PY         0.00000   0.00000   0.00000  -0.14500   0.00000
   5        2PZ         0.00000   0.00000   0.00000  -0.00000   0.00000
   6        3S          0.00000   0.00000   0.00000  -0.00000   0.00000
   7        3PX        -0.00000   0.00000   0.87548   0.00000   0.29584
   8        3PY         0.00000   0.00000   0.00000   0.87548   0.00000
   9        3PZ         0.00000   0.00000   0.00000  -0.00000   0.00000
  10        4S          0.00000   0.00000   0.00000   0.00000   0.00000
  11        4PX         0.00000  -0.00000  -0.31907   0.00000  -0.01277
  12        4PY         0.00000   0.00000   0.00000  -0.31907   0.00000
  13        4PZ         0.00000   0.00000   0.00000  -0.00000   0.00000
  14        5XX         0.00000   0.00000   0.00000  -0.37140   0.00000
  15        5YY         0.00000   0.00000   0.00000   0.37140   0.00000
  16        5ZZ         0.00000   0.00000   0.00000   0.00000   0.00000
  17        5XY         0.00000  -0.00000  -0.42885   0.00000  -0.00436
  18        5XZ        -0.00000   0.00000   0.07125   0.00000  -0.17953
  19        5YZ         0.00000   0.00000   0.00000   0.07125   0.00000
  20 2   C  1S          0.00000   0.00000   0.00000   0.00000   0.00000
  21        2S          0.00000   0.00000   0.00000  -0.00000   0.00000
  22        2PX         0.00000   0.00000   0.14500   0.00000  -0.06501
  23        2PY         0.00000   0.00000   0.00000   0.14500   0.00000
  24        2PZ         0.00000   0.00000   0.00000  -0.00000   0.00000
  25        3S          0.00000   0.00000   0.00000   0.00000   0.00000
  26        3PX        -0.00000  -0.00000  -0.87548   0.00000   0.29584
  27        3PY         0.00000   0.00000   0.00000  -0.87548   0.00000
  28        3PZ         0.00000   0.00000   0.00000  -0.00000   0.00000
  29        4S          0.00000   0.00000   0.00000  -0.00000   0.00000
  30        4PX         0.00000   0.00000   0.31907   0.00000  -0.01277
  31        4PY         0.00000   0.00000   0.00000   0.31907   0.00000
  32        4PZ         0.00000   0.00000   0.00000  -0.00000   0.00000
  33        5XX         0.00000   0.00000   0.00000   0.37140   0.00000
  34        5YY         0.00000   0.00000   0.00000  -0.37140   0.00000
  35        5ZZ         0.00000   0.00000   0.00000  -0.00000   0.00000
  36        5XY         0.00000   0.00000   0.42885   0.00000  -0.00436
  37        5XZ         0.00000   0.00000   0.07125   0.00000   0.17953
  38        5YZ         0.00000   0.00000   0.00000   0.07125   0.00000
  39 3   H  1S          0.00000   0.00000   0.00000  -0.48474   0.00000
  40        2S          0.00000   0.00000   0.00000   0.05908   0.00000
  41        3PX         0.41092   0.41094  -0.26227   0.00000  -0.27886
  42        3PY         0.00000   0.00000   0.00000  -0.27265   0.00000
  43        3PZ         0.00000   0.00000   0.00000   0.06754   0.00000
  44 4   H  1S          0.00000  -0.00000  -0.41980   0.24237  -0.03425
  45        2S         -0.00000  -0.00000   0.05116  -0.02954  -0.11360
  46        3PX        -0.20546  -0.20547  -0.27005   0.00449  -0.22389
  47        3PY        -0.35587  -0.35588   0.00449  -0.26486  -0.03174
  48        3PZ         0.00000   0.00000   0.05849  -0.03377   0.42638
  49 5   H  1S         -0.00000   0.00000   0.41980   0.24237   0.03425
  50        2S          0.00000   0.00000  -0.05116  -0.02954   0.11360
  51        3PX        -0.20546  -0.20547  -0.27005  -0.00449  -0.22389
  52        3PY         0.35587   0.35588  -0.00449  -0.26486   0.03174
  53        3PZ        -0.00000  -0.00000  -0.05849  -0.03377  -0.42638
  54 6   H  1S          0.00000   0.00000   0.41980  -0.24237  -0.03425
  55        2S         -0.00000   0.00000  -0.05116   0.02954  -0.11360
  56        3PX        -0.20546   0.20547   0.27005  -0.00449  -0.22389
  57        3PY        -0.35587   0.35588  -0.00449   0.26486  -0.03174
  58        3PZ        -0.00000   0.00000   0.05849  -0.03377  -0.42638
  59 7   H  1S         -0.00000  -0.00000  -0.41980  -0.24237   0.03425
  60        2S          0.00000  -0.00000   0.05116   0.02954   0.11360
  61        3PX        -0.20546   0.20547   0.27005   0.00449  -0.22389
  62        3PY         0.35587  -0.35588   0.00449   0.26486   0.03174
  63        3PZ         0.00000  -0.00000  -0.05849  -0.03377   0.42638
  64 8   H  1S          0.00000   0.00000   0.00000   0.48474   0.00000
  65        2S          0.00000   0.00000   0.00000  -0.05908   0.00000
  66        3PX         0.41092  -0.41094   0.26227   0.00000  -0.27886
  67        3PY         0.00000   0.00000   0.00000   0.27265   0.00000
  68        3PZ         0.00000   0.00000   0.00000   0.06754   0.00000
                          51        52        53        54        55
                        (E')--V  (A2")--V   (E")--V   (E")--V  (A1')--V
     Eigenvalues --     2.24876   2.39413   2.60199   2.60199   2.67107
   1 1   C  1S         -0.00000  -0.08679   0.00000   0.00000  -0.01174
   2        2S          0.00000  -0.24342  -0.00000   0.00000   0.06702
   3        2PX         0.00000   0.00000   0.00000   0.15281   0.00000
   4        2PY        -0.06501   0.00000   0.15281   0.00000  -0.00000
   5        2PZ         0.00000  -0.29703   0.00000   0.00000   0.01120
   6        3S         -0.00000   2.95803  -0.00000   0.00000   0.42754
   7        3PX         0.00000   0.00000   0.00000   0.80761   0.00000
   8        3PY         0.29584  -0.00000   0.80761   0.00000  -0.00000
   9        3PZ        -0.00000  -1.66705   0.00000   0.00000   0.46402
  10        4S         -0.00000   0.01356   0.00000   0.00000   0.05859
  11        4PX         0.00000   0.00000   0.00000   0.13157   0.00000
  12        4PY        -0.01277   0.00000   0.13157   0.00000  -0.00000
  13        4PZ         0.00000   0.18429  -0.00000   0.00000  -0.11478
  14        5XX        -0.00378  -0.25725   0.14233   0.00000  -0.20040
  15        5YY         0.00378  -0.25725  -0.14233   0.00000  -0.20040
  16        5ZZ        -0.00000   0.48454  -0.00000   0.00000   0.24268
  17        5XY         0.00000   0.00000   0.00000   0.16435   0.00000
  18        5XZ         0.00000   0.00000   0.00000  -0.43221   0.00000
[...]
     17 -0.111005D+00  0.237840D+00
     18 -0.474171D-01  0.821288D-01  0.894984D-01
     19  0.851777D-02  0.136899D-01 -0.641931D-02  0.109662D+00
     20 -0.136899D-01 -0.215613D-01  0.893964D-02  0.111005D+00  0.237840D+00
     21 -0.641931D-02 -0.893964D-02  0.391968D-02 -0.474171D-01 -0.821288D-01
     22 -0.140415D-01 -0.665221D-03 -0.453230D-02 -0.140415D-01  0.665221D-03
     23  0.267145D-01  0.998001D-03  0.100291D-01 -0.267145D-01  0.998001D-03
     24  0.109516D-01  0.108947D-02  0.391968D-02  0.109516D-01 -0.108947D-02
               21            22            23            24 
     21  0.894984D-01
     22 -0.453230D-02  0.301929D+00
     23 -0.100291D-01  0.000000D+00  0.455736D-01
     24  0.391968D-02  0.948342D-01  0.000000D+00  0.894984D-01
 Force constants in internal coordinates: 
                1             2             3             4             5 
      1  0.281101D+00
      2  0.397974D-02  0.338029D+00
      3  0.398011D-02  0.297524D-02  0.338029D+00
      4  0.398011D-02  0.297524D-02  0.297516D-02  0.338029D+00
      5  0.398011D-02 -0.266737D-03  0.146349D-02 -0.266658D-03  0.338029D+00
      6  0.398011D-02 -0.266737D-03 -0.266658D-03  0.146349D-02  0.297516D-02
      7  0.397974D-02  0.146356D-02 -0.266737D-03 -0.266737D-03  0.297524D-02
      8  0.176803D-01 -0.226432D-02 -0.498302D-02 -0.498302D-02  0.213396D-02
      9  0.176821D-01 -0.498286D-02 -0.226449D-02 -0.498296D-02 -0.302513D-02
     10  0.176821D-01 -0.498286D-02 -0.498296D-02 -0.226449D-02  0.213378D-02
     11 -0.191212D-01  0.655275D-02  0.655293D-02  0.120580D-03  0.233584D-03
     12 -0.191212D-01  0.655275D-02  0.120580D-03  0.655293D-02 -0.181100D-02
     13 -0.191218D-01  0.120456D-03  0.655293D-02  0.655293D-02  0.233619D-03
     14  0.176821D-01  0.213396D-02 -0.302513D-02  0.213378D-02 -0.226449D-02
     15  0.176821D-01  0.213396D-02  0.213378D-02 -0.302513D-02 -0.498296D-02
     16  0.176803D-01 -0.302542D-02  0.213396D-02  0.213396D-02 -0.498302D-02
     17 -0.191218D-01 -0.181100D-02  0.233619D-03  0.233619D-03  0.655293D-02
     18 -0.191212D-01  0.233661D-03  0.233584D-03 -0.181100D-02  0.655293D-02
     19 -0.191212D-01  0.233661D-03 -0.181100D-02  0.233584D-03  0.120580D-03
     20  0.000000D+00 -0.317956D-03  0.337216D-02 -0.305423D-02 -0.317896D-03
     21  0.000000D+00  0.317956D-03  0.305423D-02 -0.337216D-02  0.305428D-02
     22  0.000000D+00  0.000000D+00  0.369002D-02 -0.369002D-02 -0.369002D-02
     23  0.000000D+00 -0.369009D-02  0.000000D+00  0.369007D-02  0.000000D+00
     24  0.000000D+00 -0.305418D-02 -0.317896D-03  0.337214D-02  0.337214D-02
     25  0.000000D+00 -0.337214D-02  0.317896D-03  0.305428D-02 -0.337216D-02
     26  0.000000D+00  0.305418D-02 -0.337214D-02  0.317896D-03  0.317896D-03
     27  0.000000D+00  0.369009D-02 -0.369007D-02  0.000000D+00  0.369007D-02
     28  0.000000D+00  0.337214D-02 -0.305428D-02 -0.317896D-03 -0.305423D-02
                6             7             8             9            10 
      6  0.338029D+00
      7  0.297524D-02  0.338029D+00
      8  0.213396D-02 -0.302542D-02  0.103648D+00
      9  0.213378D-02  0.213396D-02 -0.208217D-01  0.103648D+00
     10 -0.302513D-02  0.213396D-02 -0.208217D-01 -0.208218D-01  0.103648D+00
     11 -0.181100D-02  0.233661D-03 -0.408071D-01 -0.408072D-01  0.145602D-01
     12  0.233584D-03  0.233661D-03 -0.408071D-01  0.145602D-01 -0.408072D-01
     13  0.233619D-03 -0.181100D-02  0.145603D-01 -0.408071D-01 -0.408071D-01
     14 -0.498296D-02 -0.498286D-02  0.591478D-02 -0.685785D-02  0.591523D-02
     15 -0.226449D-02 -0.498286D-02  0.591478D-02  0.591523D-02 -0.685785D-02
     16 -0.498302D-02 -0.226432D-02 -0.685747D-02  0.591478D-02  0.591478D-02
     17  0.655293D-02  0.120456D-03 -0.555210D-02  0.875285D-04  0.875285D-04
     18  0.120580D-03  0.655275D-02  0.875565D-04  0.876133D-04 -0.555220D-02
     19  0.655293D-02  0.655275D-02  0.875565D-04 -0.555220D-02  0.876133D-04
     20 -0.305428D-02  0.337214D-02 -0.540458D-03  0.509324D-02 -0.455279D-02
     21  0.317896D-03 -0.337214D-02  0.540458D-03  0.455279D-02 -0.509324D-02
     22  0.369002D-02  0.000000D+00  0.000000D+00  0.563390D-02 -0.563390D-02
     23 -0.369007D-02  0.369009D-02 -0.563372D-02  0.000000D+00  0.563384D-02
     24 -0.317896D-03 -0.305418D-02 -0.455281D-02 -0.540470D-03  0.509339D-02
     25  0.305423D-02  0.317956D-03 -0.509326D-02  0.540634D-03  0.455273D-02
     26 -0.337214D-02  0.305418D-02  0.455281D-02 -0.509339D-02  0.540470D-03
     27  0.000000D+00 -0.369009D-02  0.563372D-02 -0.563384D-02  0.000000D+00
     28  0.337216D-02 -0.317956D-03  0.509326D-02 -0.455273D-02 -0.540634D-03
               11            12            13            14            15 
     11  0.529588D-01
     12  0.977785D-02  0.529588D-01
     13  0.977784D-02  0.977784D-02  0.529587D-01
     14  0.876133D-04 -0.555220D-02  0.875285D-04  0.103648D+00
     15 -0.555220D-02  0.876133D-04  0.875285D-04 -0.208218D-01  0.103648D+00
     16  0.875565D-04  0.875565D-04 -0.555210D-02 -0.208217D-01 -0.208217D-01
     17  0.259365D-02  0.259365D-02  0.627620D-03 -0.408071D-01 -0.408071D-01
     18  0.627601D-03  0.259365D-02  0.259365D-02 -0.408072D-01  0.145602D-01
     19  0.259365D-02  0.627601D-03  0.259365D-02  0.145602D-01 -0.408072D-01
     20  0.611348D-02 -0.565115D-02 -0.462326D-03 -0.540634D-03 -0.455273D-02
     21  0.565115D-02 -0.611348D-02  0.462326D-03  0.455273D-02  0.540634D-03
     22  0.518877D-02 -0.518877D-02  0.000000D+00 -0.563390D-02  0.563390D-02
     23 -0.518884D-02  0.000000D+00  0.518879D-02  0.000000D+00 -0.563384D-02
     24 -0.565117D-02 -0.462393D-03  0.611345D-02  0.509339D-02 -0.540470D-03
     25 -0.611355D-02  0.462313D-03  0.565112D-02 -0.509324D-02  0.455279D-02
     26  0.462393D-03  0.565117D-02 -0.611345D-02  0.540470D-03 -0.509339D-02
     27  0.000000D+00  0.518884D-02 -0.518879D-02  0.563384D-02  0.000000D+00
     28 -0.462313D-03  0.611355D-02 -0.565112D-02 -0.455279D-02  0.509324D-02
               16            17            18            19            20 
     16  0.103648D+00
     17  0.145603D-01  0.529587D-01
     18 -0.408071D-01  0.977784D-02  0.529588D-01
     19 -0.408071D-01  0.977784D-02  0.977785D-02  0.529588D-01
     20  0.509326D-02 -0.565112D-02  0.611355D-02 -0.462313D-03  0.142591D-01
     21 -0.509326D-02  0.565112D-02  0.462313D-03 -0.611355D-02  0.349883D-02
     22  0.000000D+00  0.000000D+00 -0.518877D-02  0.518877D-02  0.328115D-02
     23  0.563372D-02 -0.518879D-02  0.518884D-02  0.000000D+00  0.328112D-02
     24 -0.455281D-02  0.611345D-02 -0.462393D-03 -0.565117D-02 -0.747914D-02
     25  0.540458D-03  0.462326D-03 -0.611348D-02  0.565115D-02 -0.769682D-02
     26  0.455281D-02 -0.611345D-02  0.565117D-02  0.462393D-03  0.349888D-02
     27 -0.563372D-02  0.518879D-02  0.000000D+00 -0.518884D-02 -0.726138D-02
     28 -0.540458D-03 -0.462326D-03 -0.565115D-02  0.611348D-02 -0.747907D-02
               21            22            23            24            25 
     21  0.142591D-01
     22  0.328115D-02  0.138237D-01
     23 -0.726138D-02 -0.726139D-02  0.138236D-01
     24  0.349888D-02 -0.726139D-02  0.328113D-02  0.142591D-01
     25 -0.747907D-02  0.328115D-02  0.328112D-02  0.349888D-02  0.142591D-01
     26 -0.747914D-02 -0.726139D-02  0.328113D-02 -0.769689D-02 -0.747914D-02
     27  0.328112D-02 -0.726139D-02 -0.726138D-02  0.328113D-02 -0.726138D-02
     28 -0.769682D-02  0.328115D-02 -0.726138D-02 -0.747914D-02  0.349883D-02
               26            27            28 
     26  0.142591D-01
     27  0.328113D-02  0.138236D-01
     28  0.349888D-02  0.328112D-02  0.142591D-01
 Leave Link  716 at Sat Mar 23 10:56:19 2024, MaxMem=   13107200 cpu:       0.0
 (Enter /programs/64bit/g09/g09-gfortran/bin/l103.exe)

 GradGradGradGradGradGradGradGradGradGradGradGradGradGradGradGradGradGrad
 Berny optimization.
 Internal  Forces:  Max     0.000229542 RMS     0.000057001
 Search for a local minimum.
 Step number   1 out of a maximum of    2
 All quantities printed in internal units (Hartrees-Bohrs-Radians)
 Second derivative matrix not updated -- analytic derivatives used.
     Eigenvalues ---   -0.00210   0.04529   0.04529   0.04785   0.04786
     Eigenvalues ---    0.11850   0.12195   0.13738   0.13738   0.16793
     Eigenvalues ---    0.16793   0.30613   0.33412   0.33412   0.33739
     Eigenvalues ---    0.33739   0.34483   0.346681000.000001000.00000
     Eigenvalues --- 1000.000001000.000001000.000001000.000001000.00000
     Eigenvalues --- 1000.000001000.000001000.00000
 Eigenvalue     1 is  -2.10D-03 should be greater than     0.000000 Eigenvector:
                          D5        D8        D4        D7        D2
   1                    0.33333   0.33333   0.33333   0.33333   0.33333
                          D6        D9        D1        D3        A3
   1                    0.33333   0.33333   0.33333   0.33333   0.00000
 Angle between quadratic step and forces=  17.55 degrees.
 Linear search not attempted -- first point.
 Iteration  1 RMS(Cart)=  0.00028296 RMS(Int)=  0.00000015
 Iteration  2 RMS(Cart)=  0.00000015 RMS(Int)=  0.00000008
 ClnCor:  largest displacement from symmetrization is 2.98D-08 for atom     4.
 Variable       Old X    -DE/DX   Delta X   Delta X   Delta X     New X
                                 (Linear)    (Quad)   (Total)
    R1        2.92258  -0.00023   0.00000  -0.00125  -0.00125   2.92134
    R2        2.06841   0.00003   0.00000   0.00013   0.00013   2.06854
    R3        2.06841   0.00003   0.00000   0.00013   0.00013   2.06854
    R4        2.06841   0.00003   0.00000   0.00013   0.00013   2.06854
    R5        2.06841   0.00003   0.00000   0.00013   0.00013   2.06854
    R6        2.06841   0.00003   0.00000   0.00013   0.00013   2.06854
    R7        2.06841   0.00003   0.00000   0.00013   0.00013   2.06854
    A1        1.95100   0.00005   0.00000   0.00051   0.00051   1.95152
    A2        1.95100   0.00005   0.00000   0.00051   0.00051   1.95152
    A3        1.95100   0.00005   0.00000   0.00051   0.00051   1.95152
    A4        1.86859  -0.00006   0.00000  -0.00056  -0.00056   1.86803
    A5        1.86859  -0.00006   0.00000  -0.00056  -0.00056   1.86803
    A6        1.86859  -0.00006   0.00000  -0.00056  -0.00056   1.86803
    A7        1.95100   0.00005   0.00000   0.00051   0.00051   1.95152
    A8        1.95100   0.00005   0.00000   0.00051   0.00051   1.95152
    A9        1.95100   0.00005   0.00000   0.00051   0.00051   1.95152
   A10        1.86859  -0.00006   0.00000  -0.00056  -0.00056   1.86803
   A11        1.86859  -0.00006   0.00000  -0.00056  -0.00056   1.86803
   A12        1.86859  -0.00006   0.00000  -0.00056  -0.00056   1.86803
    D1        2.09440  -0.00000   0.00000  -0.00000   0.00000   2.09440
    D2       -2.09440   0.00000   0.00000   0.00000   0.00000  -2.09440
    D3        0.00000   0.00000   0.00000  -0.00000   0.00000   0.00000
    D4       -0.00000  -0.00000   0.00000  -0.00000   0.00000  -0.00000
    D5        2.09440   0.00000   0.00000   0.00000   0.00000   2.09440
    D6       -2.09440   0.00000   0.00000   0.00000   0.00000  -2.09440
    D7       -2.09440  -0.00000   0.00000  -0.00000   0.00000  -2.09440
    D8        0.00000  -0.00000   0.00000  -0.00000   0.00000   0.00000
    D9        2.09440  -0.00000   0.00000  -0.00000   0.00000   2.09440
         Item               Value     Threshold  Converged?
 Maximum Force            0.000230     0.000450     YES
 RMS     Force            0.000057     0.000300     YES
 Maximum Displacement     0.000624     0.001800     YES
 RMS     Displacement     0.000283     0.001200     YES
 Predicted change in Energy=-3.242591D-07
 Optimization completed.
    -- Stationary point found.
                           ----------------------------
                           !   Optimized Parameters   !
                           ! (Angstroms and Degrees)  !
 --------------------------                            --------------------------
 ! Name  Definition              Value          Derivative Info.                !
 --------------------------------------------------------------------------------
 ! R1    R(1,2)                  1.5466         -DE/DX =   -0.0002              !
 ! R2    R(1,3)                  1.0946         -DE/DX =    0.0                 !
 ! R3    R(1,4)                  1.0946         -DE/DX =    0.0                 !
 ! R4    R(1,5)                  1.0946         -DE/DX =    0.0                 !
 ! R5    R(2,6)                  1.0946         -DE/DX =    0.0                 !
 ! R6    R(2,7)                  1.0946         -DE/DX =    0.0                 !
 ! R7    R(2,8)                  1.0946         -DE/DX =    0.0                 !
 ! A1    A(2,1,3)              111.7843         -DE/DX =    0.0001              !
 ! A2    A(2,1,4)              111.7843         -DE/DX =    0.0001              !
 ! A3    A(2,1,5)              111.7843         -DE/DX =    0.0001              !
 ! A4    A(3,1,4)              107.0623         -DE/DX =   -0.0001              !
 ! A5    A(3,1,5)              107.0623         -DE/DX =   -0.0001              !
 ! A6    A(4,1,5)              107.0623         -DE/DX =   -0.0001              !
 ! A7    A(1,2,6)              111.7843         -DE/DX =    0.0001              !
 ! A8    A(1,2,7)              111.7843         -DE/DX =    0.0001              !
 ! A9    A(1,2,8)              111.7843         -DE/DX =    0.0001              !
 ! A10   A(6,2,7)              107.0623         -DE/DX =   -0.0001              !
 ! A11   A(6,2,8)              107.0623         -DE/DX =   -0.0001              !
 ! A12   A(7,2,8)              107.0623         -DE/DX =   -0.0001              !
 ! D1    D(3,1,2,6)            120.0            -DE/DX =    0.0                 !
 ! D2    D(3,1,2,7)           -120.0            -DE/DX =    0.0                 !
 ! D3    D(3,1,2,8)              0.0            -DE/DX =    0.0                 !
 ! D4    D(4,1,2,6)              0.0            -DE/DX =    0.0                 !
 ! D5    D(4,1,2,7)            120.0            -DE/DX =    0.0                 !
 ! D6    D(4,1,2,8)           -120.0            -DE/DX =    0.0                 !
 ! D7    D(5,1,2,6)           -120.0            -DE/DX =    0.0                 !
 ! D8    D(5,1,2,7)              0.0            -DE/DX =    0.0                 !
 ! D9    D(5,1,2,8)            120.0            -DE/DX =    0.0                 !
 --------------------------------------------------------------------------------
 GradGradGradGradGradGradGradGradGradGradGradGradGradGradGradGradGradGrad

 Leave Link  103 at Sat Mar 23 10:56:19 2024, MaxMem=   13107200 cpu:       0.0
 (Enter /programs/64bit/g09/g09-gfortran/bin/l9999.exe)
 1\1\GINC-MOLMOD\Freq\RB3LYP\6-31+G(d,p)\C2H6\OSPITE\23-Mar-2024\0\\#P 
 Geom=AllCheck Guess=TCheck SCRF=Check GenChk RB3LYP/6-31+G(d,p) Freq\\
 c2h6_symm\\0,1\C,0.,0.,-0.0232823419\C,0.,0.,1.5232823419\H,1.01639181
 02,0.,-0.4294877146\H,-0.5081959051,0.8802211279,-0.4294877146\H,-0.50
 81959051,-0.8802211279,-0.4294877146\H,-0.5081959051,0.8802211279,1.92
 94877146\H,-0.5081959051,-0.8802211279,1.9294877146\H,1.0163918102,0.,
 1.9294877146\\Version=EM64L-G09RevA.02\State=1-A1'\HF=-79.8372895\RMSD
 =1.238e-09\RMSF=1.217e-04\ZeroPoint=0.0741918\Thermal=0.0772401\Dipole
 =0.,0.,0.\DipoleDeriv=0.082802,0.,-0.0000312,0.,0.0828182,0.,-0.000009
 8,0.,0.0810263,0.082802,0.,0.0000312,0.,0.0828182,0.,0.0000098,0.,0.08
 10263,-0.1335648,0.,0.1096297,0.,0.0783614,0.,0.0532884,0.,-0.0270145,
 0.0253807,0.0917644,-0.054807,0.091761,-0.0805865,0.0949354,-0.0266419
 ,0.0461545,-0.0270102,0.0253807,-0.0917644,-0.054807,-0.091761,-0.0805
 865,-0.0949354,-0.0266419,-0.0461545,-0.0270102,0.0253807,0.0917644,0.
 054807,0.091761,-0.0805865,-0.0949354,0.0266419,-0.0461545,-0.0270102,
 0.0253807,-0.0917644,0.054807,-0.091761,-0.0805865,0.0949354,0.0266419
 ,0.0461545,-0.0270102,-0.1335648,0.,-0.1096297,0.,0.0783614,0.,-0.0532
 884,0.,-0.0270145\Polar=24.2417797,0.,24.2423667,0.,0.,26.7721055\PG=D
 03H [C3(C1.C1),3SGV(H2)]\NImag=1\\0.56117907,0.,0.56118077,-0.00000108
 ,0.,0.46092328,-0.07289749,0.,0.00000041,0.56117907,0.,-0.07290065,0.,
 0.,0.56118077,-0.00000041,0.,-0.18614026,0.00000108,0.,0.46092328,-0.2
 7970525,0.,0.08895656,0.00298569,0.,-0.00256647,0.30192864,0.,-0.04742
 072,0.,0.,-0.00138068,0.,0.,0.04557357,0.08769243,0.,-0.07864022,0.027
 61555,0.,-0.01295474,-0.09483416,0.,0.08949837,-0.10549201,0.10058243,
 -0.04447801,-0.00028896,-0.00189098,0.00128334,-0.01404154,0.02671448,
 -0.01095161,0.10966234,0.10058210,-0.22163421,0.07703839,-0.00189071,0
 .00189452,-0.00222275,-0.00066522,0.00099800,-0.00108947,-0.11100500,0
 .23783987,-0.04384575,0.07594365,-0.07863887,-0.01380768,0.02391597,-0
 .01295562,0.00453230,-0.01002911,0.00391968,0.04741708,-0.08212879,0.0
 8949837,-0.10549201,-0.10058243,-0.04447801,-0.00028896,0.00189098,0.0
 0128334,-0.01404154,-0.02671448,-0.01095161,0.00851777,0.01368985,0.00
 641931,0.10966234,-0.10058210,-0.22163421,-0.07703839,0.00189071,0.001
 89452,0.00222275,0.00066522,0.00099800,0.00108947,-0.01368985,-0.02156
 132,-0.00893964,0.11100500,0.23783987,-0.04384575,-0.07594365,-0.07863
 887,-0.01380768,-0.02391597,-0.01295562,0.00453230,0.01002911,0.003919
 68,0.00641931,0.00893964,0.00391968,0.04741708,0.08212879,0.08949837,-
 0.00028896,-0.00189098,-0.00128334,-0.10549201,0.10058243,0.04447801,0
 .00034311,-0.00009476,0.00059652,0.00163202,-0.00032072,-0.00011822,-0
 .00033262,-0.00029537,-0.00078841,0.10966234,-0.00189071,0.00189452,0.
 00222275,0.10058210,-0.22163421,-0.07703839,-0.00068551,-0.00010738,0.
 00056597,-0.00032072,0.00200236,0.00020476,0.00029537,0.00056835,-0.00
 023361,-0.11100500,0.23783987,0.01380768,-0.02391597,-0.01295562,0.043
 84575,-0.07594365,-0.07863887,-0.00019189,-0.00079959,-0.00382962,0.00
 011822,-0.00020476,0.00191648,0.00078841,-0.00023361,-0.00382962,-0.04
 741708,0.08212879,0.08949837,-0.00028896,0.00189098,-0.00128334,-0.105
 49201,-0.10058243,0.04447801,0.00034311,0.00009476,0.00059652,-0.00033
 262,0.00029537,-0.00078841,0.00163202,0.00032072,-0.00011822,0.0085177
 7,0.01368985,-0.00641931,0.10966234,0.00189071,0.00189452,-0.00222275,
 -0.10058210,-0.22163421,0.07703839,0.00068551,-0.00010738,-0.00056597,
 -0.00029537,0.00056835,0.00023361,0.00032072,0.00200236,-0.00020476,-0
 .01368985,-0.02156132,0.00893964,0.11100500,0.23783987,0.01380768,0.02
 391597,-0.01295562,0.04384575,0.07594365,-0.07863887,-0.00019189,0.000
 79959,-0.00382962,0.00078841,0.00023361,-0.00382962,0.00011822,0.00020
 476,0.00191648,-0.00641931,-0.00893964,0.00391968,-0.04741708,-0.08212
 879,0.08949837,0.00298569,0.,0.00256647,-0.27970525,0.,-0.08895656,0.0
 0218753,0.,0.00023644,0.00034311,-0.00068551,0.00019189,0.00034311,0.0
 0068551,0.00019189,-0.01404154,-0.00066522,-0.00453230,-0.01404154,0.0
 0066522,-0.00453230,0.30192864,0.,-0.00138068,0.,0.,-0.04742072,0.,0.,
 0.00144685,0.,-0.00009476,-0.00010738,0.00079959,0.00009476,-0.0001073
 8,-0.00079959,0.02671448,0.00099800,0.01002911,-0.02671448,0.00099800,
 -0.01002911,0.,0.04557357,-0.02761555,0.,-0.01295474,-0.08769243,0.,-0
 .07864022,-0.00023644,0.,0.00191648,-0.00059652,-0.00056597,-0.0038296
 2,-0.00059652,0.00056597,-0.00382962,0.01095161,0.00108947,0.00391968,
 0.01095161,-0.00108947,0.00391968,0.09483416,0.,0.08949837\\0.,0.,-0.0
 0040855,0.,0.,0.00040855,-0.00000472,0.,0.00005967,0.00000236,-0.00000
 409,0.00005967,0.00000236,0.00000409,0.00005967,0.00000236,-0.00000409
 ,-0.00005967,0.00000236,0.00000409,-0.00005967,-0.00000472,0.,-0.00005
 967\\\@


 ALTHOUGH J.J. COULD DIAGNOSE THE FAULTS OF AN
 APPARATUS WITH UNCANNY ACCURACY, IT WAS JUST AS
 WELL NOT TO LET HIM HANDLE IT.
   -- GEORGE THOMPSON, ABOUT HIS FATHER
 Job cpu time:  0 days  0 hours  0 minutes  5.0 seconds.
 File lengths (MBytes):  RWF=      5 Int=      0 D2E=      0 Chk=      2 Scr=      1
 Normal termination of Gaussian 09 at Sat Mar 23 10:56:19 2024.
