 Entering Gaussian System, Link 0=/programs/64bit/g09/g09-gfortran/bin/g09
 Input=c3h8.com
 Output=c3h8.log
 Initial command:
 /programs/64bit/g09/g09-gfortran/bin/l1.exe /home/ospite/QM/c2h6/Gau-15638.inp -scrdir=/home/ospite/QM/c2h6/
 Entering Link 1 = /programs/64bit/g09/g09-gfortran/bin/l1.exe PID=     15639.
  
 Copyright (c) 1988,1990,1992,1993,1995,1998,2003,2009, Gaussian, Inc.
                  All Rights Reserved.
  
 This is part of the Gaussian(R) 09 program.  It is based on
 the Gaussian(R) 03 system (copyright 2003, Gaussian, Inc.),
 the Gaussian(R) 98 system (copyright 1998, Gaussian, Inc.),
 the Gaussian(R) 94 system (copyright 1995, Gaussian, Inc.),
 the Gaussian 92(TM) system (copyright 1992, Gaussian, Inc.),
 the Gaussian 90(TM) system (copyright 1990, Gaussian, Inc.),
 the Gaussian 88(TM) system (copyright 1988, Gaussian, Inc.),
 the Gaussian 86(TM) system (copyright 1986, Carnegie Mellon
 University), and the Gaussian 82(TM) system (copyright 1983,
 Carnegie Mellon University). Gaussian is a federally registered
 trademark of Gaussian, Inc.
  
 This software contains proprietary and confidential information,
 including trade secrets, belonging to Gaussian, Inc.
  
 This software is provided under written license and may be
 used, copied, transmitted, or stored only in accord with that
 written license.
  
 The following legend is applicable only to US Government
 contracts under FAR:
  
                    RESTRICTED RIGHTS LEGEND
  
 Use, reproduction and disclosure by the US Government is
 subject to restrictions as set forth in subparagraphs (a)
 and (c) of the Commercial Computer Software - Restricted
 Rights clause in FAR 52.227-19.
  
 Gaussian, Inc.
 340 Quinnipiac St., Bldg. 40, Wallingford CT 06492
  
  
 ---------------------------------------------------------------
 Warning -- This program may not be used in any manner that
 competes with the business of Gaussian, Inc. or will provide
 assistance to any competitor of Gaussian, Inc.  The licensee
 of this program is prohibited from giving any competitor of
 Gaussian, Inc. access to this program.  By using this program,
 the user acknowledges that Gaussian, Inc. is engaged in the
 business of creating and licensing software in the field of
 computational chemistry and represents and warrants to the
 licensee that it is not a competitor of Gaussian, Inc. and that
 it will not use this program in any manner prohibited above.
 ---------------------------------------------------------------
  

 Cite this work as:
 Gaussian 09, Revision A.02,
 M. J. Frisch, G. W. Trucks, H. B. Schlegel, G. E. Scuseria, 
 M. A. Robb, J. R. Cheeseman, G. Scalmani, V. Barone, B. Mennucci, 
 G. A. Petersson, H. Nakatsuji, M. Caricato, X. Li, H. P. Hratchian, 
 A. F. Izmaylov, J. Bloino, G. Zheng, J. L. Sonnenberg, M. Hada, 
 M. Ehara, K. Toyota, R. Fukuda, J. Hasegawa, M. Ishida, T. Nakajima, 
 Y. Honda, O. Kitao, H. Nakai, T. Vreven, J. A. Montgomery, Jr., 
 J. E. Peralta, F. Ogliaro, M. Bearpark, J. J. Heyd, E. Brothers, 
 K. N. Kudin, V. N. Staroverov, R. Kobayashi, J. Normand, 
 K. Raghavachari, A. Rendell, J. C. Burant, S. S. Iyengar, J. Tomasi, 
 M. Cossi, N. Rega, J. M. Millam, M. Klene, J. E. Knox, J. B. Cross, 
 V. Bakken, C. Adamo, J. Jaramillo, R. Gomperts, R. E. Stratmann, 
 O. Yazyev, A. J. Austin, R. Cammi, C. Pomelli, J. W. Ochterski, 
 R. L. Martin, K. Morokuma, V. G. Zakrzewski, G. A. Voth, 
 P. Salvador, J. J. Dannenberg, S. Dapprich, A. D. Daniels, 
 O. Farkas, J. B. Foresman, J. V. Ortiz, J. Cioslowski, 
 and D. J. Fox, Gaussian, Inc., Wallingford CT, 2009.
 
 ******************************************
 Gaussian 09:  EM64L-G09RevA.02 11-Jun-2009
                23-Mar-2024 
 ******************************************
 %chk=tmp
 %mem=100MB
 ----------------------------------------------
 #p B3LYP/6-31+g(d,p) opt freq pop=full gfinput
 ----------------------------------------------
 1/14=-1,18=20,19=15,26=3,38=1/1,3;
 2/9=110,12=2,17=6,18=5,40=1/2;
 3/5=1,6=6,7=111,11=2,16=1,24=10,25=1,30=1,71=1,74=-5/1,2,3;
 4//1;
 5/5=2,38=5/2;
 6/7=3,28=1/1;
 7//1,2,3,16;
 1/14=-1,18=20,19=15/3(2);
 2/9=110/2;
 99//99;
 2/9=110/2;
 3/5=1,6=6,7=111,11=2,16=1,25=1,30=1,71=1,74=-5/1,2,3;
 4/5=5,16=3/1;
 5/5=2,38=5/2;
 7//1,2,3,16;
 1/14=-1,18=20,19=15/3(-5);
 2/9=110/2;
 6/7=3,19=2,28=1/1;
 99/9=1/99;
 Leave Link    1 at Sat Mar 23 11:50:41 2024, MaxMem=   13107200 cpu:       0.0
 (Enter /programs/64bit/g09/g09-gfortran/bin/l101.exe)
 ----
 c3h8
 ----
 Symbolic Z-matrix:
 Charge =  0 Multiplicity = 1
 C
 X                    1     1. 
 C                    1    rc       2    accx
 C                    1    rc       2    accx     3     180.     0
 H                    1    rh1      2    ahcx     3     90.      0
 H                    1    rh1      2    ahcx     3    -90.      0
 H                    3    rh2      1    ah2      2     0.       0
 H                    4    rh2      1    ah2      2     0.       0
 H                    3    rh3      1    ah3      7    dh3      0
 H                    3    rh3      1    ah3      7    -dh3     0
 H                    4    rh3      1    ah3      8    dh3      0
 H                    4    rh3      1    ah3      8    -dh3     0
       Variables:
  rc                    1.5282                   
  rh1                   1.0872                   
  rh2                   1.0857                   
  rh3                   1.0866                   
  accx                123.6047                   
  ahcx                 53.1376                   
  ah2                 111.3567                   
  ah3                 111.095                    
  dh3                 120.1122                   
 
 NAtoms=     11 NQM=     11 NQMF=      0 NMic=      0 NMicF=      0 NTot=     11.
                    Isotopes and Nuclear Properties:
 (Nuclear quadrupole moments (NQMom) in fm**2, nuclear magnetic moments (NMagM)
  in nuclear magnetons)

  Atom         1           2           3           4           5           6           7           8           9          10
 IAtWgt=          12          12          12           1           1           1           1           1           1           1
 AtmWgt=  12.0000000  12.0000000  12.0000000   1.0078250   1.0078250   1.0078250   1.0078250   1.0078250   1.0078250   1.0078250
 NucSpn=           0           0           0           1           1           1           1           1           1           1
 AtZEff=   0.0000000   0.0000000   0.0000000   0.0000000   0.0000000   0.0000000   0.0000000   0.0000000   0.0000000   0.0000000
 NQMom=    0.0000000   0.0000000   0.0000000   0.0000000   0.0000000   0.0000000   0.0000000   0.0000000   0.0000000   0.0000000
 NMagM=    0.0000000   0.0000000   0.0000000   2.7928460   2.7928460   2.7928460   2.7928460   2.7928460   2.7928460   2.7928460

  Atom        11
 IAtWgt=           1
 AtmWgt=   1.0078250
 NucSpn=           1
 AtZEff=   0.0000000
 NQMom=    0.0000000
 NMagM=    2.7928460
 Leave Link  101 at Sat Mar 23 11:50:41 2024, MaxMem=   13107200 cpu:       0.1
 (Enter /programs/64bit/g09/g09-gfortran/bin/l103.exe)

 GradGradGradGradGradGradGradGradGradGradGradGradGradGradGradGradGradGrad
 Berny optimization.
 Initialization pass.
                           ----------------------------
                           !    Initial Parameters    !
                           ! (Angstroms and Degrees)  !
 --------------------------                            --------------------------
 ! Name  Definition              Value          Derivative Info.                !
 --------------------------------------------------------------------------------
 ! R1    R(1,2)                  1.5282         estimate D2E/DX2                !
 ! R2    R(1,3)                  1.5282         estimate D2E/DX2                !
 ! R3    R(1,4)                  1.0872         estimate D2E/DX2                !
 ! R4    R(1,5)                  1.0872         estimate D2E/DX2                !
 ! R5    R(2,6)                  1.0857         estimate D2E/DX2                !
 ! R6    R(2,8)                  1.0866         estimate D2E/DX2                !
 ! R7    R(2,9)                  1.0866         estimate D2E/DX2                !
 ! R8    R(3,7)                  1.0857         estimate D2E/DX2                !
 ! R9    R(3,10)                 1.0866         estimate D2E/DX2                !
 ! R10   R(3,11)                 1.0866         estimate D2E/DX2                !
 ! A1    A(2,1,3)              112.7906         estimate D2E/DX2                !
 ! A2    A(2,1,4)              109.3913         estimate D2E/DX2                !
 ! A3    A(2,1,5)              109.3913         estimate D2E/DX2                !
 ! A4    A(3,1,4)              109.3913         estimate D2E/DX2                !
 ! A5    A(3,1,5)              109.3913         estimate D2E/DX2                !
 ! A6    A(4,1,5)              106.2752         estimate D2E/DX2                !
 ! A7    A(1,2,6)              111.3567         estimate D2E/DX2                !
 ! A8    A(1,2,8)              111.095          estimate D2E/DX2                !
 ! A9    A(1,2,9)              111.095          estimate D2E/DX2                !
 ! A10   A(6,2,8)              107.7498         estimate D2E/DX2                !
 ! A11   A(6,2,9)              107.7498         estimate D2E/DX2                !
 ! A12   A(8,2,9)              107.622          estimate D2E/DX2                !
 ! A13   A(1,3,7)              111.3567         estimate D2E/DX2                !
 ! A14   A(1,3,10)             111.095          estimate D2E/DX2                !
 ! A15   A(1,3,11)             111.095          estimate D2E/DX2                !
 ! A16   A(7,3,10)             107.7498         estimate D2E/DX2                !
 ! A17   A(7,3,11)             107.7498         estimate D2E/DX2                !
 ! A18   A(10,3,11)            107.622          estimate D2E/DX2                !
 ! D1    D(3,1,2,6)            180.0            estimate D2E/DX2                !
 ! D2    D(3,1,2,8)            -59.8878         estimate D2E/DX2                !
 ! D3    D(3,1,2,9)             59.8878         estimate D2E/DX2                !
 ! D4    D(4,1,2,6)            -58.0158         estimate D2E/DX2                !
 ! D5    D(4,1,2,8)             62.0964         estimate D2E/DX2                !
 ! D6    D(4,1,2,9)           -178.128          estimate D2E/DX2                !
 ! D7    D(5,1,2,6)             58.0158         estimate D2E/DX2                !
 ! D8    D(5,1,2,8)            178.128          estimate D2E/DX2                !
 ! D9    D(5,1,2,9)            -62.0964         estimate D2E/DX2                !
 ! D10   D(2,1,3,7)            180.0            estimate D2E/DX2                !
 ! D11   D(2,1,3,10)           -59.8878         estimate D2E/DX2                !
 ! D12   D(2,1,3,11)            59.8878         estimate D2E/DX2                !
 ! D13   D(4,1,3,7)             58.0158         estimate D2E/DX2                !
 ! D14   D(4,1,3,10)           178.128          estimate D2E/DX2                !
 ! D15   D(4,1,3,11)           -62.0964         estimate D2E/DX2                !
 ! D16   D(5,1,3,7)            -58.0158         estimate D2E/DX2                !
 ! D17   D(5,1,3,10)            62.0964         estimate D2E/DX2                !
 ! D18   D(5,1,3,11)          -178.128          estimate D2E/DX2                !
 --------------------------------------------------------------------------------
 Trust Radius=3.00D-01 FncErr=1.00D-07 GrdErr=1.00D-06
 Number of steps in this run=  56 maximum allowed number of steps= 100.
 GradGradGradGradGradGradGradGradGradGradGradGradGradGradGradGradGradGrad

 Leave Link  103 at Sat Mar 23 11:50:41 2024, MaxMem=   13107200 cpu:       0.0
 (Enter /programs/64bit/g09/g09-gfortran/bin/l202.exe)
                          Input orientation:                          
 ---------------------------------------------------------------------
 Center     Atomic      Atomic             Coordinates (Angstroms)
 Number     Number       Type             X           Y           Z
 ---------------------------------------------------------------------
      1          6           0        0.000000    0.000000    0.000000
      2          6           0        1.272801    0.000000   -0.845797
      3          6           0       -1.272801    0.000000   -0.845797
      4          1           0        0.000000   -0.869845    0.652206
      5          1           0        0.000000    0.869845    0.652206
      6          1           0        2.161735    0.000000   -0.222466
      7          1           0       -2.161735    0.000000   -0.222466
      8          1           0        1.317031   -0.876966   -1.485855
      9          1           0        1.317031    0.876966   -1.485855
     10          1           0       -1.317031    0.876966   -1.485855
     11          1           0       -1.317031   -0.876966   -1.485855
 ---------------------------------------------------------------------
                    Distance matrix (angstroms):
                    1          2          3          4          5
     1  C    0.000000
     2  C    1.528200   0.000000
     3  C    1.528200   2.545602   0.000000
     4  H    1.087200   2.149574   2.149574   0.000000
     5  H    1.087200   2.149574   2.149574   1.739691   0.000000
     6  H    2.173151   1.085700   3.490641   2.488931   2.488931
     7  H    2.173151   3.490641   1.085700   2.488931   2.488931
     8  H    2.170577   1.086600   2.808197   2.511160   3.058958
     9  H    2.170577   1.086600   2.808197   3.058958   2.511160
    10  H    2.170577   2.808197   1.086600   3.058958   2.511160
    11  H    2.170577   2.808197   1.086600   2.511160   3.058958
                    6          7          8          9         10
     6  H    0.000000
     7  H    4.323469   0.000000
     8  H    1.754635   3.803555   0.000000
     9  H    1.754635   3.803555   1.753932   0.000000
    10  H    3.803555   1.754635   3.164579   2.634061   0.000000
    11  H    3.803555   1.754635   2.634061   3.164579   1.753932
                   11
    11  H    0.000000
 Stoichiometry    C3H8
 Framework group  C2V[C2(C),SGV(C2H2),SGV'(H2),X(H4)]
 Deg. of freedom     9
 Full point group                 C2V     NOp   4
 Largest Abelian subgroup         C2V     NOp   4
 Largest concise Abelian subgroup C2V     NOp   4
                         Standard orientation:                         
 ---------------------------------------------------------------------
 Center     Atomic      Atomic             Coordinates (Angstroms)
 Number     Number       Type             X           Y           Z
 ---------------------------------------------------------------------
      1          6           0       -0.000000    0.000000    0.585904
      2          6           0        0.000000    1.272801   -0.259893
      3          6           0       -0.000000   -1.272801   -0.259893
      4          1           0        0.869845   -0.000000    1.238110
      5          1           0       -0.869845    0.000000    1.238110
      6          1           0        0.000000    2.161735    0.363438
      7          1           0       -0.000000   -2.161735    0.363438
      8          1           0        0.876966    1.317031   -0.899951
      9          1           0       -0.876966    1.317031   -0.899951
     10          1           0       -0.876966   -1.317031   -0.899951
     11          1           0        0.876966   -1.317031   -0.899951
 ---------------------------------------------------------------------
 Rotational constants (GHZ):     29.7571091      8.4345274      7.4704463
 Leave Link  202 at Sat Mar 23 11:50:41 2024, MaxMem=   13107200 cpu:       0.0
 (Enter /programs/64bit/g09/g09-gfortran/bin/l301.exe)
 Standard basis: 6-31+G(d,p) (6D, 7F)
 Ernie: Thresh=  0.10000D-02 Tol=  0.10000D-05 Strict=F.
 AO basis set in the form of general basis input (Overlap normalization):
      1 0
 S   6 1.00       0.000000000000
      0.3047524880D+04  0.1834737132D-02
      0.4573695180D+03  0.1403732281D-01
      0.1039486850D+03  0.6884262226D-01
      0.2921015530D+02  0.2321844432D+00
      0.9286662960D+01  0.4679413484D+00
      0.3163926960D+01  0.3623119853D+00
 SP   3 1.00       0.000000000000
      0.7868272350D+01 -0.1193324198D+00  0.6899906659D-01
      0.1881288540D+01 -0.1608541517D+00  0.3164239610D+00
      0.5442492580D+00  0.1143456438D+01  0.7443082909D+00
 SP   1 1.00       0.000000000000
      0.1687144782D+00  0.1000000000D+01  0.1000000000D+01
 SP   1 1.00       0.000000000000
      0.4380000000D-01  0.1000000000D+01  0.1000000000D+01
 D   1 1.00       0.000000000000
      0.8000000000D+00  0.1000000000D+01
 ****
      2 0
 S   6 1.00       0.000000000000
      0.3047524880D+04  0.1834737132D-02
      0.4573695180D+03  0.1403732281D-01
      0.1039486850D+03  0.6884262226D-01
      0.2921015530D+02  0.2321844432D+00
      0.9286662960D+01  0.4679413484D+00
      0.3163926960D+01  0.3623119853D+00
 SP   3 1.00       0.000000000000
      0.7868272350D+01 -0.1193324198D+00  0.6899906659D-01
      0.1881288540D+01 -0.1608541517D+00  0.3164239610D+00
      0.5442492580D+00  0.1143456438D+01  0.7443082909D+00
 SP   1 1.00       0.000000000000
      0.1687144782D+00  0.1000000000D+01  0.1000000000D+01
 SP   1 1.00       0.000000000000
      0.4380000000D-01  0.1000000000D+01  0.1000000000D+01
 D   1 1.00       0.000000000000
      0.8000000000D+00  0.1000000000D+01
 ****
      3 0
 S   6 1.00       0.000000000000
      0.3047524880D+04  0.1834737132D-02
      0.4573695180D+03  0.1403732281D-01
      0.1039486850D+03  0.6884262226D-01
      0.2921015530D+02  0.2321844432D+00
      0.9286662960D+01  0.4679413484D+00
      0.3163926960D+01  0.3623119853D+00
 SP   3 1.00       0.000000000000
      0.7868272350D+01 -0.1193324198D+00  0.6899906659D-01
      0.1881288540D+01 -0.1608541517D+00  0.3164239610D+00
      0.5442492580D+00  0.1143456438D+01  0.7443082909D+00
 SP   1 1.00       0.000000000000
      0.1687144782D+00  0.1000000000D+01  0.1000000000D+01
 SP   1 1.00       0.000000000000
      0.4380000000D-01  0.1000000000D+01  0.1000000000D+01
 D   1 1.00       0.000000000000
      0.8000000000D+00  0.1000000000D+01
 ****
      4 0
 S   3 1.00       0.000000000000
      0.1873113696D+02  0.3349460434D-01
      0.2825394365D+01  0.2347269535D+00
      0.6401216923D+00  0.8137573261D+00
 S   1 1.00       0.000000000000
      0.1612777588D+00  0.1000000000D+01
 P   1 1.00       0.000000000000
      0.1100000000D+01  0.1000000000D+01
 ****
      5 0
 S   3 1.00       0.000000000000
      0.1873113696D+02  0.3349460434D-01
      0.2825394365D+01  0.2347269535D+00
      0.6401216923D+00  0.8137573261D+00
 S   1 1.00       0.000000000000
      0.1612777588D+00  0.1000000000D+01
 P   1 1.00       0.000000000000
      0.1100000000D+01  0.1000000000D+01
 ****
      6 0
 S   3 1.00       0.000000000000
      0.1873113696D+02  0.3349460434D-01
      0.2825394365D+01  0.2347269535D+00
      0.6401216923D+00  0.8137573261D+00
 S   1 1.00       0.000000000000
      0.1612777588D+00  0.1000000000D+01
 P   1 1.00       0.000000000000
      0.1100000000D+01  0.1000000000D+01
 ****
      7 0
 S   3 1.00       0.000000000000
      0.1873113696D+02  0.3349460434D-01
      0.2825394365D+01  0.2347269535D+00
      0.6401216923D+00  0.8137573261D+00
 S   1 1.00       0.000000000000
      0.1612777588D+00  0.1000000000D+01
 P   1 1.00       0.000000000000
      0.1100000000D+01  0.1000000000D+01
 ****
      8 0
 S   3 1.00       0.000000000000
      0.1873113696D+02  0.3349460434D-01
      0.2825394365D+01  0.2347269535D+00
      0.6401216923D+00  0.8137573261D+00
 S   1 1.00       0.000000000000
      0.1612777588D+00  0.1000000000D+01
 P   1 1.00       0.000000000000
      0.1100000000D+01  0.1000000000D+01
 ****
      9 0
 S   3 1.00       0.000000000000
      0.1873113696D+02  0.3349460434D-01
      0.2825394365D+01  0.2347269535D+00
      0.6401216923D+00  0.8137573261D+00
 S   1 1.00       0.000000000000
      0.1612777588D+00  0.1000000000D+01
 P   1 1.00       0.000000000000
      0.1100000000D+01  0.1000000000D+01
 ****
     10 0
 S   3 1.00       0.000000000000
      0.1873113696D+02  0.3349460434D-01
      0.2825394365D+01  0.2347269535D+00
      0.6401216923D+00  0.8137573261D+00
 S   1 1.00       0.000000000000
      0.1612777588D+00  0.1000000000D+01
 P   1 1.00       0.000000000000
      0.1100000000D+01  0.1000000000D+01
 ****
     11 0
 S   3 1.00       0.000000000000
      0.1873113696D+02  0.3349460434D-01
      0.2825394365D+01  0.2347269535D+00
      0.6401216923D+00  0.8137573261D+00
 S   1 1.00       0.000000000000
      0.1612777588D+00  0.1000000000D+01
 P   1 1.00       0.000000000000
      0.1100000000D+01  0.1000000000D+01
 ****

 There are    37 symmetry adapted basis functions of A1  symmetry.
 There are    13 symmetry adapted basis functions of A2  symmetry.
 There are    19 symmetry adapted basis functions of B1  symmetry.
 There are    28 symmetry adapted basis functions of B2  symmetry.
 Integral buffers will be    131072 words long.
 Raffenetti 2 integral format.
 Two-electron integral symmetry is turned on.
    97 basis functions,   152 primitive gaussians,    97 cartesian basis functions
    13 alpha electrons       13 beta electrons
       nuclear repulsion energy        82.7308072053 Hartrees.
 IExCor=  402 DFT=T Ex+Corr=B3LYP ExCW=0 ScaHFX=  0.200000
 ScaDFX=  0.800000  0.720000  1.000000  0.810000 ScalE2=  1.000000  1.000000
 IRadAn=      0 IRanWt=     -1 IRanGd=            0 ICorTp=0
 NAtoms=   11 NActive=   11 NUniq=    5 SFac= 3.00D+00 NAtFMM=   80 NAOKFM=F Big=F
 Leave Link  301 at Sat Mar 23 11:50:41 2024, MaxMem=   13107200 cpu:       0.0
 (Enter /programs/64bit/g09/g09-gfortran/bin/l302.exe)
 NPDir=0 NMtPBC=     1 NCelOv=     1 NCel=       1 NClECP=     1 NCelD=      1
         NCelK=      1 NCelE2=     1 NClLst=     1 CellRange=     0.0.
 One-electron integrals computed using PRISM.
 One-electron integral symmetry used in STVInt
 NBasis=    97 RedAO= T  NBF=    37    13    19    28
 NBsUse=    97 1.00D-06 NBFU=    37    13    19    28
 Precomputing XC quadrature grid using
 IXCGrd= 2 IRadAn=           0 IRanWt=          -1 IRanGd=           0 AccXCQ= 1.00D-10.
 NRdTot=     703 NPtTot=       89482 NUsed=       94559 NTot=       94591
 NSgBfM=    97    97    97    97    97 NAtAll=    11    11.
 Leave Link  302 at Sat Mar 23 11:50:41 2024, MaxMem=   13107200 cpu:       0.1
 (Enter /programs/64bit/g09/g09-gfortran/bin/l303.exe)
 DipDrv:  MaxL=1.
 Leave Link  303 at Sat Mar 23 11:50:41 2024, MaxMem=   13107200 cpu:       0.0
 (Enter /programs/64bit/g09/g09-gfortran/bin/l401.exe)
 Harris functional with IExCor=  402 diagonalized for initial guess.
 ExpMin= 4.38D-02 ExpMax= 3.05D+03 ExpMxC= 4.57D+02 IAcc=2 IRadAn=         0 AccDes= 0.00D+00
 HarFok:  IExCor=  402 AccDes= 0.00D+00 IRadAn=         0 IDoV= 1
 ScaDFX=  1.000000  1.000000  1.000000  1.000000
 FoFCou: FMM=F IPFlag=           0 FMFlag=      100000 FMFlg1=           0
         NFxFlg=           0 DoJE=T BraDBF=F KetDBF=T FulRan=T
         Omega=  0.000000  0.000000  1.000000  0.000000  0.000000 ICntrl=     500 IOpCl=  0
         NMat0=    1 NMatS0=    1 NMatT0=    0 NMatD0=    1 NMtDS0=    0 NMtDT0=    0
         I1Cent=           4 NGrid=           0.
 Petite list used in FoFCou.
 Harris En= -119.232961720842    
 Initial guess orbital symmetries:
       Occupied  (B2) (A1) (A1) (A1) (B2) (A1) (B1) (A1) (B2) (A2)
                 (B2) (A1) (B1)
       Virtual   (A1) (B2) (A1) (B1) (A1) (B2) (A1) (B1) (A2) (B2)
                 (A1) (A2) (B2) (A1) (B1) (B2) (A1) (B1) (B2) (A1)
                 (B2) (A1) (A1) (B2) (B1) (A1) (A2) (A1) (B1) (B2)
                 (B2) (B1) (A2) (A1) (B2) (A1) (B1) (A1) (B2) (A1)
                 (A2) (A1) (B2) (B2) (A1) (B1) (A2) (B2) (A1) (A1)
                 (B1) (A2) (B1) (A1) (A2) (B1) (B2) (A1) (B1) (A2)
                 (B2) (B1) (B2) (A1) (A2) (B2) (A1) (B2) (A1) (B1)
                 (A2) (B2) (A1) (A1) (B2) (A1) (B1) (B2) (A2) (A1)
                 (B1) (A1) (B2) (A1)
 The electronic state of the initial guess is 1-A1.
 Leave Link  401 at Sat Mar 23 11:50:41 2024, MaxMem=   13107200 cpu:       0.2
 (Enter /programs/64bit/g09/g09-gfortran/bin/l502.exe)
 Closed shell SCF:
 Requested convergence on RMS density matrix=1.00D-08 within 128 cycles.
 Requested convergence on MAX density matrix=1.00D-06.
 Requested convergence on             energy=1.00D-06.
 No special actions if energy rises.
 Using DIIS extrapolation, IDIIS=  1040.
 Integral symmetry usage will be decided dynamically.
        94447 words used for storage of precomputed grid.
 Keep R1 ints in memory in canonical form, NReq=12358209.
 IEnd=      142550 IEndB=      142550 NGot=    13107200 MDV=     1692888
 LenX=     1692888 LenY=     1683038
 Symmetry not used in FoFDir.
 MinBra= 0 MaxBra= 2 Meth= 1.
 IRaf=       0 NMat=   1 IRICut=       1 DoRegI=T DoRafI=F ISym2E= 0 JSym2E=0.

 Cycle   1  Pass 1  IDiag  1:
 E= -118.980179097406    
 DIIS: error= 3.59D-02 at cycle   1 NSaved=   1.
 NSaved= 1 IEnMin= 1 EnMin= -118.980179097406     IErMin= 1 ErrMin= 3.59D-02
 ErrMax= 3.59D-02 EMaxC= 1.00D-01 BMatC= 1.57D-01 BMatP= 1.57D-01
 IDIUse=3 WtCom= 6.41D-01 WtEn= 3.59D-01
 Coeff-Com:  0.100D+01
 Coeff-En:   0.100D+01
 Coeff:      0.100D+01
 Gap=     0.246 Goal=   None    Shift=    0.000
 GapD=    0.246 DampG=1.000 DampE=0.500 DampFc=0.5000 IDamp=-1.
 Damping current iteration by 5.00D-01
 RMSDP=8.70D-03 MaxDP=1.42D-01              OVMax= 2.07D-01

 Cycle   2  Pass 1  IDiag  1:
 E= -119.053188271348     Delta-E=       -0.073009173943 Rises=F Damp=T
 DIIS: error= 8.85D-03 at cycle   2 NSaved=   2.
 NSaved= 2 IEnMin= 2 EnMin= -119.053188271348     IErMin= 2 ErrMin= 8.85D-03
 ErrMax= 8.85D-03 EMaxC= 1.00D-01 BMatC= 6.88D-03 BMatP= 1.57D-01
 IDIUse=3 WtCom= 9.11D-01 WtEn= 8.85D-02
 Coeff-Com:  0.110D+00 0.890D+00
 Coeff-En:   0.191D+00 0.809D+00
 Coeff:      0.117D+00 0.883D+00
 Gap=     0.341 Goal=   None    Shift=    0.000
 RMSDP=1.56D-03 MaxDP=1.78D-02 DE=-7.30D-02 OVMax= 1.27D-01

 Cycle   3  Pass 1  IDiag  1:
 E= -119.157955986863     Delta-E=       -0.104767715515 Rises=F Damp=F
 DIIS: error= 3.51D-03 at cycle   3 NSaved=   3.
 NSaved= 3 IEnMin= 3 EnMin= -119.157955986863     IErMin= 3 ErrMin= 3.51D-03
 ErrMax= 3.51D-03 EMaxC= 1.00D-01 BMatC= 6.58D-04 BMatP= 6.88D-03
 IDIUse=3 WtCom= 9.65D-01 WtEn= 3.51D-02
 Coeff-Com:  0.912D-02 0.194D+00 0.797D+00
 Coeff-En:   0.000D+00 0.000D+00 0.100D+01
 Coeff:      0.880D-02 0.188D+00 0.804D+00
 Gap=     0.344 Goal=   None    Shift=    0.000
 RMSDP=4.16D-04 MaxDP=6.90D-03 DE=-1.05D-01 OVMax= 8.55D-03

 Cycle   4  Pass 1  IDiag  1:
 E= -119.158428755989     Delta-E=       -0.000472769126 Rises=F Damp=F
 DIIS: error= 1.99D-03 at cycle   4 NSaved=   4.
 NSaved= 4 IEnMin= 4 EnMin= -119.158428755989     IErMin= 4 ErrMin= 1.99D-03
 ErrMax= 1.99D-03 EMaxC= 1.00D-01 BMatC= 1.71D-04 BMatP= 6.58D-04
 IDIUse=3 WtCom= 9.80D-01 WtEn= 1.99D-02
 Coeff-Com: -0.208D-02 0.283D-01 0.346D+00 0.628D+00
 Coeff-En:   0.000D+00 0.000D+00 0.126D+00 0.874D+00
 Coeff:     -0.204D-02 0.277D-01 0.341D+00 0.633D+00
 Gap=     0.346 Goal=   None    Shift=    0.000
 RMSDP=1.31D-04 MaxDP=3.50D-03 DE=-4.73D-04 OVMax= 3.68D-03

 Cycle   5  Pass 1  IDiag  1:
 E= -119.158579159416     Delta-E=       -0.000150403427 Rises=F Damp=F
 DIIS: error= 3.91D-04 at cycle   5 NSaved=   5.
 NSaved= 5 IEnMin= 5 EnMin= -119.158579159416     IErMin= 5 ErrMin= 3.91D-04
 ErrMax= 3.91D-04 EMaxC= 1.00D-01 BMatC= 1.31D-05 BMatP= 1.71D-04
 IDIUse=3 WtCom= 9.96D-01 WtEn= 3.91D-03
 Coeff-Com: -0.108D-02-0.146D-02 0.936D-01 0.285D+00 0.624D+00
 Coeff-En:   0.000D+00 0.000D+00 0.000D+00 0.000D+00 0.100D+01
 Coeff:     -0.108D-02-0.145D-02 0.932D-01 0.284D+00 0.626D+00
 Gap=     0.346 Goal=   None    Shift=    0.000
 RMSDP=3.56D-05 MaxDP=8.48D-04 DE=-1.50D-04 OVMax= 1.03D-03

 Cycle   6  Pass 1  IDiag  1:
 E= -119.158591421062     Delta-E=       -0.000012261646 Rises=F Damp=F
 DIIS: error= 2.80D-05 at cycle   6 NSaved=   6.
 NSaved= 6 IEnMin= 6 EnMin= -119.158591421062     IErMin= 6 ErrMin= 2.80D-05
 ErrMax= 2.80D-05 EMaxC= 1.00D-01 BMatC= 8.58D-08 BMatP= 1.31D-05
 IDIUse=1 WtCom= 1.00D+00 WtEn= 0.00D+00
 Coeff-Com: -0.637D-04-0.971D-03 0.184D-01 0.632D-01 0.168D+00 0.751D+00
 Coeff:     -0.637D-04-0.971D-03 0.184D-01 0.632D-01 0.168D+00 0.751D+00
 Gap=     0.346 Goal=   None    Shift=    0.000
 RMSDP=6.91D-06 MaxDP=1.08D-04 DE=-1.23D-05 OVMax= 1.05D-04

 Cycle   7  Pass 1  IDiag  1:
 E= -119.158591519111     Delta-E=       -0.000000098049 Rises=F Damp=F
 DIIS: error= 4.41D-06 at cycle   7 NSaved=   7.
 NSaved= 7 IEnMin= 7 EnMin= -119.158591519111     IErMin= 7 ErrMin= 4.41D-06
 ErrMax= 4.41D-06 EMaxC= 1.00D-01 BMatC= 2.02D-09 BMatP= 8.58D-08
 IDIUse=1 WtCom= 1.00D+00 WtEn= 0.00D+00
 Coeff-Com:  0.879D-04-0.124D-03-0.157D-02-0.373D-02-0.429D-02 0.115D+00
 Coeff-Com:  0.894D+00
 Coeff:      0.879D-04-0.124D-03-0.157D-02-0.373D-02-0.429D-02 0.115D+00
 Coeff:      0.894D+00
 Gap=     0.346 Goal=   None    Shift=    0.000
 RMSDP=8.59D-07 MaxDP=1.04D-05 DE=-9.80D-08 OVMax= 1.69D-05

 Cycle   8  Pass 1  IDiag  1:
 E= -119.158591521577     Delta-E=       -0.000000002466 Rises=F Damp=F
 DIIS: error= 2.72D-07 at cycle   8 NSaved=   8.
 NSaved= 8 IEnMin= 8 EnMin= -119.158591521577     IErMin= 8 ErrMin= 2.72D-07
 ErrMax= 2.72D-07 EMaxC= 1.00D-01 BMatC= 3.97D-12 BMatP= 2.02D-09
 IDIUse=1 WtCom= 1.00D+00 WtEn= 0.00D+00
 Coeff-Com: -0.410D-06-0.548D-06-0.143D-03-0.397D-03-0.774D-03-0.971D-03
 Coeff-Com:  0.280D-01 0.974D+00
 Coeff:     -0.410D-06-0.548D-06-0.143D-03-0.397D-03-0.774D-03-0.971D-03
 Coeff:      0.280D-01 0.974D+00
 Gap=     0.346 Goal=   None    Shift=    0.000
 RMSDP=5.77D-08 MaxDP=8.68D-07 DE=-2.47D-09 OVMax= 8.59D-07

 Cycle   9  Pass 1  IDiag  1:
 E= -119.158591521583     Delta-E=       -0.000000000007 Rises=F Damp=F
 DIIS: error= 3.66D-08 at cycle   9 NSaved=   9.
 NSaved= 9 IEnMin= 9 EnMin= -119.158591521583     IErMin= 9 ErrMin= 3.66D-08
 ErrMax= 3.66D-08 EMaxC= 1.00D-01 BMatC= 7.32D-14 BMatP= 3.97D-12
 IDIUse=1 WtCom= 1.00D+00 WtEn= 0.00D+00
 Coeff-Com: -0.855D-06 0.804D-06-0.789D-05-0.286D-04-0.909D-04-0.924D-03
 Coeff-Com: -0.226D-02 0.154D+00 0.849D+00
 Coeff:     -0.855D-06 0.804D-06-0.789D-05-0.286D-04-0.909D-04-0.924D-03
 Coeff:     -0.226D-02 0.154D+00 0.849D+00
 Gap=     0.346 Goal=   None    Shift=    0.000
 RMSDP=5.22D-09 MaxDP=7.11D-08 DE=-6.79D-12 OVMax= 1.07D-07

 SCF Done:  E(RB3LYP) =  -119.158591522     A.U. after    9 cycles
             Convg  =    0.5216D-08             -V/T =  2.0097
 KE= 1.180100570471D+02 PE=-4.400328661876D+02 EE= 1.201334104137D+02
 Leave Link  502 at Sat Mar 23 11:50:43 2024, MaxMem=   13107200 cpu:       1.7
 (Enter /programs/64bit/g09/g09-gfortran/bin/l601.exe)
 Copying SCF densities to generalized density rwf, IOpCl= 0 IROHF=0.

 **********************************************************************

            Population analysis using the SCF density.

 **********************************************************************

 Orbital symmetries:
       Occupied  (A1) (B2) (A1) (A1) (B2) (A1) (B1) (A1) (B2) (A2)
                 (B2) (A1) (B1)
       Virtual   (A1) (B2) (A1) (B1) (A1) (B2) (A2) (A1) (B1) (B2)
                 (A1) (B2) (A2) (A1) (B1) (B1) (B2) (A1) (B2) (A1)
                 (B2) (A1) (A1) (B2) (B1) (A1) (A2) (A1) (B1) (B2)
                 (B2) (B1) (A2) (A1) (B2) (A1) (B1) (A1) (A1) (B2)
                 (A2) (A1) (B2) (B2) (A1) (B1) (A2) (B2) (A1) (A1)
                 (B1) (A2) (B1) (A1) (A2) (B1) (B2) (B1) (A1) (A2)
                 (B2) (B1) (B2) (A1) (A2) (B2) (A1) (B2) (A1) (B1)
                 (A2) (B2) (A1) (A1) (B2) (A1) (B1) (B2) (A2) (A1)
                 (B1) (A1) (B2) (A1)
 The electronic state is 1-A1.
 Alpha  occ. eigenvalues --  -10.18067 -10.17176 -10.17175  -0.78251  -0.68362
 Alpha  occ. eigenvalues --   -0.58777  -0.45894  -0.43774  -0.39987  -0.38301
 Alpha  occ. eigenvalues --   -0.33860  -0.33838  -0.33008
 Alpha virt. eigenvalues --    0.01549   0.03062   0.03541   0.04590   0.07019
 Alpha virt. eigenvalues --    0.07750   0.08277   0.08603   0.09338   0.11440
 Alpha virt. eigenvalues --    0.12438   0.14990   0.20011   0.20470   0.20597
 Alpha virt. eigenvalues --    0.24963   0.25381   0.25488   0.28216   0.31399
 Alpha virt. eigenvalues --    0.33703   0.34983   0.60444   0.62572   0.63962
 Alpha virt. eigenvalues --    0.64458   0.66844   0.69772   0.70739   0.72872
 Alpha virt. eigenvalues --    0.80552   0.92167   0.93841   0.96012   0.96679
 Alpha virt. eigenvalues --    1.01032   1.03050   1.09931   1.10900   1.11988
 Alpha virt. eigenvalues --    1.30395   1.31667   1.39471   1.53864   1.57026
 Alpha virt. eigenvalues --    1.66445   1.69158   1.86852   1.87850   1.95580
 Alpha virt. eigenvalues --    2.05370   2.05391   2.11232   2.13430   2.13583
 Alpha virt. eigenvalues --    2.13859   2.14694   2.26438   2.28434   2.29984
 Alpha virt. eigenvalues --    2.33681   2.43187   2.47613   2.54569   2.66572
 Alpha virt. eigenvalues --    2.70984   2.73926   2.76951   2.84171   2.88956
 Alpha virt. eigenvalues --    2.92408   2.93228   2.93663   3.24701   3.28734
 Alpha virt. eigenvalues --    3.36154   3.36790   3.46213   3.50005   3.52681
 Alpha virt. eigenvalues --    3.59291   4.32413   4.50739   4.64974
     Molecular Orbital Coefficients:
                           1         2         3         4         5
                        (A1)--O   (B2)--O   (A1)--O   (A1)--O   (B2)--O
     Eigenvalues --   -10.18067 -10.17176 -10.17175  -0.78251  -0.68362
   1 1   C  1S          0.99294   0.00000  -0.01732  -0.14728   0.00000
   2        2S          0.05026   0.00000  -0.00118   0.27899   0.00000
   3        2PX         0.00000   0.00000   0.00000   0.00000   0.00000
   4        2PY         0.00000  -0.00013   0.00000   0.00000   0.14492
   5        2PZ         0.00001   0.00000   0.00007  -0.04277   0.00000
   6        3S         -0.02126   0.00000   0.00673   0.22693   0.00000
   7        3PX         0.00000   0.00000   0.00000   0.00000   0.00000
   8        3PY         0.00000   0.00321   0.00000   0.00000   0.02808
   9        3PZ         0.00155   0.00000  -0.00134  -0.00843   0.00000
  10        4S          0.00105   0.00000   0.01322  -0.02516   0.00000
  11        4PX         0.00000   0.00000   0.00000   0.00000   0.00000
  12        4PY         0.00000  -0.00108   0.00000   0.00000  -0.00569
  13        4PZ        -0.00096   0.00000  -0.00254   0.00802   0.00000
  14        5XX        -0.00859   0.00000  -0.00004  -0.01018   0.00000
  15        5YY        -0.00899   0.00000  -0.00028   0.00141   0.00000
  16        5ZZ        -0.00877   0.00000  -0.00019  -0.00457   0.00000
  17        5XY         0.00000   0.00000   0.00000   0.00000   0.00000
  18        5XZ         0.00000   0.00000   0.00000   0.00000   0.00000
  19        5YZ         0.00000   0.00014   0.00000   0.00000  -0.01350
  20 2   C  1S          0.01200   0.70217   0.70199  -0.11035  -0.14255
  21        2S          0.00031   0.03566   0.03529   0.20926   0.27595
  22        2PX         0.00000   0.00000   0.00000   0.00000   0.00000
  23        2PY         0.00004  -0.00009   0.00011  -0.05183   0.02520
  24        2PZ        -0.00007  -0.00008  -0.00000   0.02735   0.00145
  25        3S          0.00519  -0.01370  -0.01265   0.16531   0.26122
  26        3PX         0.00000   0.00000   0.00000   0.00000   0.00000
  27        3PY        -0.00226   0.00143   0.00030  -0.00558   0.00546
  28        3PZ         0.00142  -0.00004  -0.00076   0.00328  -0.00025
  29        4S         -0.00084   0.00083  -0.00695   0.02047   0.02946
  30        4PX         0.00000   0.00000   0.00000   0.00000   0.00000
  31        4PY         0.00045  -0.00034   0.00139  -0.00430  -0.00439
  32        4PZ         0.00000   0.00059  -0.00083   0.00156   0.00178
  33        5XX        -0.00025  -0.00619  -0.00636  -0.00738  -0.00638
  34        5YY        -0.00040  -0.00635  -0.00644   0.00099  -0.00791
  35        5ZZ        -0.00038  -0.00629  -0.00638  -0.00423  -0.00559
  36        5XY         0.00000   0.00000   0.00000   0.00000   0.00000
  37        5XZ         0.00000   0.00000   0.00000   0.00000   0.00000
  38        5YZ         0.00015   0.00012   0.00009  -0.00575   0.00006
  39 3   C  1S          0.01200  -0.70217   0.70199  -0.11035   0.14255
  40        2S          0.00031  -0.03566   0.03529   0.20926  -0.27595
  41        2PX         0.00000   0.00000   0.00000   0.00000   0.00000
  42        2PY        -0.00004  -0.00009  -0.00011   0.05183   0.02520
  43        2PZ        -0.00007   0.00008  -0.00000   0.02735  -0.00145
  44        3S          0.00519   0.01370  -0.01265   0.16531  -0.26122
  45        3PX         0.00000   0.00000   0.00000   0.00000   0.00000
  46        3PY         0.00226   0.00143  -0.00030   0.00558   0.00546
  47        3PZ         0.00142   0.00004  -0.00076   0.00328   0.00025
  48        4S         -0.00084  -0.00083  -0.00695   0.02047  -0.02946
  49        4PX         0.00000   0.00000   0.00000   0.00000   0.00000
  50        4PY        -0.00045  -0.00034  -0.00139   0.00430  -0.00439
  51        4PZ         0.00000  -0.00059  -0.00083   0.00156  -0.00178
  52        5XX        -0.00025   0.00619  -0.00636  -0.00738   0.00638
  53        5YY        -0.00040   0.00635  -0.00644   0.00099   0.00791
  54        5ZZ        -0.00038   0.00629  -0.00638  -0.00423   0.00559
  55        5XY         0.00000   0.00000   0.00000   0.00000   0.00000
  56        5XZ         0.00000   0.00000   0.00000   0.00000   0.00000
  57        5YZ        -0.00015   0.00012  -0.00009   0.00575   0.00006
  58 4   H  1S         -0.00011   0.00000  -0.00018   0.08307   0.00000
  59        2S          0.00352   0.00000  -0.00047   0.01256   0.00000
  60        3PX         0.00018   0.00000  -0.00003  -0.00675   0.00000
  61        3PY         0.00000   0.00002   0.00000   0.00000   0.00205
  62        3PZ         0.00006   0.00000  -0.00007  -0.00542   0.00000
  63 5   H  1S         -0.00011   0.00000  -0.00018   0.08307   0.00000
  64        2S          0.00352   0.00000  -0.00047   0.01256   0.00000
  65        3PX        -0.00018   0.00000   0.00003   0.00675   0.00000
  66        3PY         0.00000   0.00002   0.00000   0.00000   0.00205
  67        3PZ         0.00006   0.00000  -0.00007  -0.00542   0.00000
  68 6   H  1S         -0.00016  -0.00016  -0.00015   0.05986   0.10931
  69        2S         -0.00004   0.00171   0.00284   0.00806   0.03032
  70        3PX         0.00000   0.00000   0.00000   0.00000   0.00000
  71        3PY        -0.00000   0.00013   0.00004  -0.00554  -0.00790
  72        3PZ        -0.00002   0.00012   0.00010  -0.00320  -0.00558
  73 7   H  1S         -0.00016   0.00016  -0.00015   0.05986  -0.10931
  74        2S         -0.00004  -0.00171   0.00284   0.00806  -0.03032
  75        3PX         0.00000   0.00000   0.00000   0.00000   0.00000
  76        3PY         0.00000   0.00013  -0.00004   0.00554  -0.00790
  77        3PZ        -0.00002  -0.00012   0.00010  -0.00320   0.00558
  78 8   H  1S         -0.00018  -0.00006  -0.00017   0.06321   0.09983
  79        2S          0.00015   0.00265   0.00213   0.00983   0.02488
  80        3PX        -0.00003   0.00009   0.00011  -0.00513  -0.00741
  81        3PY        -0.00002  -0.00010   0.00001  -0.00106   0.00031
  82        3PZ         0.00004  -0.00007  -0.00005   0.00404   0.00545
  83 9   H  1S         -0.00018  -0.00006  -0.00017   0.06321   0.09983
  84        2S          0.00015   0.00265   0.00213   0.00983   0.02488
  85        3PX         0.00003  -0.00009  -0.00011   0.00513   0.00741
  86        3PY        -0.00002  -0.00010   0.00001  -0.00106   0.00031
  87        3PZ         0.00004  -0.00007  -0.00005   0.00404   0.00545
  88 10  H  1S         -0.00018   0.00006  -0.00017   0.06321  -0.09983
  89        2S          0.00015  -0.00265   0.00213   0.00983  -0.02488
  90        3PX         0.00003   0.00009  -0.00011   0.00513  -0.00741
  91        3PY         0.00002  -0.00010  -0.00001   0.00106   0.00031
  92        3PZ         0.00004   0.00007  -0.00005   0.00404  -0.00545
  93 11  H  1S         -0.00018   0.00006  -0.00017   0.06321  -0.09983
  94        2S          0.00015  -0.00265   0.00213   0.00983  -0.02488
  95        3PX        -0.00003  -0.00009   0.00011  -0.00513   0.00741
  96        3PY         0.00002  -0.00010  -0.00001   0.00106   0.00031
  97        3PZ         0.00004   0.00007  -0.00005   0.00404  -0.00545
                           6         7         8         9        10
                        (A1)--O   (B1)--O   (A1)--O   (B2)--O   (A2)--O
     Eigenvalues --    -0.58777  -0.45894  -0.43774  -0.39987  -0.38301
   1 1   C  1S         -0.13070   0.00000   0.02392   0.00000   0.00000
   2        2S          0.26315   0.00000  -0.05308   0.00000   0.00000
   3        2PX         0.00000   0.30843   0.00000   0.00000   0.00000
   4        2PY         0.00000   0.00000   0.00000   0.24281   0.00000
   5        2PZ         0.13114   0.00000   0.24326   0.00000   0.00000
   6        3S          0.27981   0.00000  -0.06134   0.00000   0.00000
   7        3PX         0.00000   0.13779   0.00000   0.00000   0.00000
   8        3PY         0.00000   0.00000   0.00000   0.11364   0.00000
   9        3PZ         0.03947   0.00000   0.10186   0.00000   0.00000
  10        4S          0.05809   0.00000  -0.06260   0.00000   0.00000
  11        4PX         0.00000   0.01976   0.00000   0.00000   0.00000
  12        4PY         0.00000   0.00000   0.00000   0.03631   0.00000
  13        4PZ        -0.00373   0.00000   0.02827   0.00000   0.00000
  14        5XX         0.00091   0.00000   0.00766   0.00000   0.00000
  15        5YY        -0.01475   0.00000   0.00540   0.00000   0.00000
  16        5ZZ        -0.00777   0.00000  -0.00709   0.00000   0.00000
  17        5XY         0.00000   0.00000   0.00000   0.00000   0.01343
  18        5XZ         0.00000   0.00680   0.00000   0.00000   0.00000
  19        5YZ         0.00000   0.00000   0.00000  -0.00080   0.00000
  20 2   C  1S          0.08151   0.00000  -0.00941   0.00334   0.00000
  21        2S         -0.16200   0.00000   0.01708  -0.00314   0.00000
  22        2PX         0.00000   0.22933   0.00000   0.00000   0.32349
  23        2PY        -0.09477   0.00000   0.26182  -0.00427   0.00000
  24        2PZ         0.10177   0.00000   0.12738   0.31452   0.00000
  25        3S         -0.17610   0.00000   0.03215  -0.02491   0.00000
  26        3PX         0.00000   0.09239   0.00000   0.00000   0.15161
  27        3PY        -0.02199   0.00000   0.10701   0.00420   0.00000
  28        3PZ         0.03071   0.00000   0.06341   0.13222   0.00000
  29        4S         -0.03260   0.00000   0.04156  -0.03830   0.00000
  30        4PX         0.00000   0.00783   0.00000   0.00000   0.03366
  31        4PY         0.00255   0.00000   0.00949   0.00029   0.00000
  32        4PZ        -0.00083   0.00000   0.00929   0.01966   0.00000
  33        5XX        -0.00080   0.00000  -0.00451  -0.01283   0.00000
  34        5YY         0.00914   0.00000  -0.00077   0.01074   0.00000
  35        5ZZ         0.00617   0.00000   0.00407   0.00167   0.00000
  36        5XY         0.00000  -0.00571   0.00000   0.00000   0.00167
  37        5XZ         0.00000  -0.00595   0.00000   0.00000  -0.01622
  38        5YZ        -0.00900   0.00000   0.00953   0.00202   0.00000
  39 3   C  1S          0.08151   0.00000  -0.00941  -0.00334   0.00000
  40        2S         -0.16200   0.00000   0.01708   0.00314   0.00000
  41        2PX         0.00000   0.22933   0.00000   0.00000  -0.32349
  42        2PY         0.09477   0.00000  -0.26182  -0.00427   0.00000
  43        2PZ         0.10177   0.00000   0.12738  -0.31452   0.00000
  44        3S         -0.17610   0.00000   0.03215   0.02491   0.00000
  45        3PX         0.00000   0.09239   0.00000   0.00000  -0.15161
  46        3PY         0.02199   0.00000  -0.10701   0.00420   0.00000
  47        3PZ         0.03071   0.00000   0.06341  -0.13222   0.00000
  48        4S         -0.03260   0.00000   0.04156   0.03830   0.00000
  49        4PX         0.00000   0.00783   0.00000   0.00000  -0.03366
  50        4PY        -0.00255   0.00000  -0.00949   0.00029   0.00000
  51        4PZ        -0.00083   0.00000   0.00929  -0.01966   0.00000
  52        5XX        -0.00080   0.00000  -0.00451   0.01283   0.00000
  53        5YY         0.00914   0.00000  -0.00077  -0.01074   0.00000
  54        5ZZ         0.00617   0.00000   0.00407  -0.00167   0.00000
  55        5XY         0.00000   0.00571   0.00000   0.00000   0.00167
  56        5XZ         0.00000  -0.00595   0.00000   0.00000   0.01622
  57        5YZ         0.00900   0.00000  -0.00953   0.00202   0.00000
  58 4   H  1S          0.14162   0.14400   0.06344   0.00000   0.00000
  59        2S          0.05680   0.08782   0.04862   0.00000   0.00000
  60        3PX        -0.00888  -0.00078  -0.00276   0.00000   0.00000
  61        3PY         0.00000   0.00000   0.00000   0.00532   0.00181
  62        3PZ        -0.00469  -0.00546   0.00190   0.00000   0.00000
  63 5   H  1S          0.14162  -0.14400   0.06344   0.00000   0.00000
  64        2S          0.05680  -0.08782   0.04862   0.00000   0.00000
  65        3PX         0.00888  -0.00078   0.00276   0.00000   0.00000
  66        3PY         0.00000   0.00000   0.00000   0.00532  -0.00181
  67        3PZ        -0.00469   0.00546   0.00190   0.00000   0.00000
  68 6   H  1S         -0.07450   0.00000   0.18367   0.11448   0.00000
  69        2S         -0.03191   0.00000   0.12419   0.09193   0.00000
  70        3PX         0.00000   0.00421   0.00000   0.00000   0.00638
  71        3PY         0.00336   0.00000  -0.00436  -0.00511   0.00000
  72        3PZ         0.00528   0.00000  -0.00323   0.00315   0.00000
  73 7   H  1S         -0.07450   0.00000   0.18367  -0.11448   0.00000
  74        2S         -0.03191   0.00000   0.12419  -0.09193   0.00000
  75        3PX         0.00000   0.00421   0.00000   0.00000  -0.00638
  76        3PY        -0.00336   0.00000   0.00436  -0.00511   0.00000
  77        3PZ         0.00528   0.00000  -0.00323  -0.00315   0.00000
  78 8   H  1S         -0.09611   0.11015  -0.03136  -0.12110   0.17362
  79        2S         -0.04031   0.07510  -0.02054  -0.09046   0.13513
  80        3PX         0.00607  -0.00069   0.00106   0.00542  -0.00113
  81        3PY        -0.00083  -0.00130   0.00538  -0.00014   0.00015
  82        3PZ        -0.00290   0.00411   0.00137   0.00187   0.00538
  83 9   H  1S         -0.09611  -0.11015  -0.03136  -0.12110  -0.17362
  84        2S         -0.04031  -0.07510  -0.02054  -0.09046  -0.13513
  85        3PX        -0.00607  -0.00069  -0.00106  -0.00542  -0.00113
  86        3PY        -0.00083   0.00130   0.00538  -0.00014  -0.00015
  87        3PZ        -0.00290  -0.00411   0.00137   0.00187  -0.00538
  88 10  H  1S         -0.09611  -0.11015  -0.03136   0.12110   0.17362
  89        2S         -0.04031  -0.07510  -0.02054   0.09046   0.13513
  90        3PX        -0.00607  -0.00069  -0.00106   0.00542   0.00113
  91        3PY         0.00083  -0.00130  -0.00538  -0.00014  -0.00015
  92        3PZ        -0.00290  -0.00411   0.00137  -0.00187   0.00538
  93 11  H  1S         -0.09611   0.11015  -0.03136   0.12110  -0.17362
  94        2S         -0.04031   0.07510  -0.02054   0.09046  -0.13513
  95        3PX         0.00607  -0.00069   0.00106  -0.00542   0.00113
  96        3PY         0.00083   0.00130  -0.00538  -0.00014   0.00015
  97        3PZ        -0.00290   0.00411   0.00137  -0.00187  -0.00538
                          11        12        13        14        15
                        (B2)--O   (A1)--O   (B1)--O   (A1)--V   (B2)--V
     Eigenvalues --    -0.33860  -0.33838  -0.33008   0.01549   0.03062
   1 1   C  1S          0.00000   0.01171   0.00000  -0.03401   0.00000
   2        2S          0.00000  -0.03355   0.00000   0.05199   0.00000
   3        2PX         0.00000   0.00000   0.32812   0.00000   0.00000
   4        2PY         0.33277   0.00000   0.00000   0.00000  -0.07564
   5        2PZ         0.00000   0.34271   0.00000   0.12052   0.00000
   6        3S          0.00000  -0.02644   0.00000   0.39499   0.00000
   7        3PX         0.00000   0.00000   0.14090   0.00000   0.00000
   8        3PY         0.13303   0.00000   0.00000   0.00000  -0.05298
   9        3PZ         0.00000   0.15087   0.00000   0.13236   0.00000
  10        4S          0.00000  -0.03591   0.00000   3.14676   0.00000
  11        4PX         0.00000   0.00000   0.06129   0.00000   0.00000
  12        4PY         0.06720   0.00000   0.00000   0.00000  -2.51328
  13        4PZ         0.00000   0.06657   0.00000  -1.08898   0.00000
  14        5XX         0.00000   0.01648   0.00000  -0.00652   0.00000
  15        5YY         0.00000  -0.02199   0.00000   0.00050   0.00000
  16        5ZZ         0.00000   0.00938   0.00000  -0.00552   0.00000
  17        5XY         0.00000   0.00000   0.00000   0.00000   0.00000
  18        5XZ         0.00000   0.00000   0.02787   0.00000   0.00000
  19        5YZ        -0.01775   0.00000   0.00000   0.00000  -0.00818
  20 2   C  1S         -0.02060   0.01865   0.00000  -0.04735  -0.04548
  21        2S          0.04696  -0.04223   0.00000   0.09411   0.09773
  22        2PX         0.00000   0.00000  -0.20652   0.00000   0.00000
  23        2PY        -0.33171   0.07133   0.00000   0.07924   0.07816
  24        2PZ        -0.00504  -0.26602   0.00000  -0.04565   0.01132
  25        3S          0.07039  -0.06461   0.00000   0.35585   0.34898
  26        3PX         0.00000   0.00000  -0.08477   0.00000   0.00000
  27        3PY        -0.15191   0.03294   0.00000   0.09568   0.07359
  28        3PZ         0.00618  -0.12424   0.00000  -0.07052  -0.04346
  29        4S         -0.03582   0.04340   0.00000  -2.51095   4.15586
  30        4PX         0.00000   0.00000  -0.03747   0.00000   0.00000
  31        4PY        -0.04170  -0.00951   0.00000   0.31429  -1.72693
  32        4PZ        -0.01990  -0.03313   0.00000  -0.12485   0.82908
  33        5XX         0.00192   0.01327   0.00000  -0.00594  -0.00237
  34        5YY        -0.00927  -0.01616   0.00000  -0.00841  -0.00278
  35        5ZZ         0.00210   0.00769   0.00000  -0.00342  -0.00583
  36        5XY         0.00000   0.00000  -0.00725   0.00000   0.00000
  37        5XZ         0.00000   0.00000   0.01994   0.00000   0.00000
  38        5YZ        -0.01710  -0.00305   0.00000  -0.00609   0.00565
  39 3   C  1S          0.02060   0.01865   0.00000  -0.04735   0.04548
  40        2S         -0.04696  -0.04223   0.00000   0.09411  -0.09773
  41        2PX         0.00000   0.00000  -0.20652   0.00000   0.00000
  42        2PY        -0.33171  -0.07133   0.00000  -0.07924   0.07816
  43        2PZ         0.00504  -0.26602   0.00000  -0.04565  -0.01132
  44        3S         -0.07039  -0.06461   0.00000   0.35585  -0.34898
  45        3PX         0.00000   0.00000  -0.08477   0.00000   0.00000
  46        3PY        -0.15191  -0.03294   0.00000  -0.09568   0.07359
  47        3PZ        -0.00618  -0.12424   0.00000  -0.07052   0.04346
  48        4S          0.03582   0.04340   0.00000  -2.51095  -4.15586
  49        4PX         0.00000   0.00000  -0.03747   0.00000   0.00000
  50        4PY        -0.04170   0.00951   0.00000  -0.31429  -1.72693
  51        4PZ         0.01990  -0.03313   0.00000  -0.12485  -0.82908
  52        5XX        -0.00192   0.01327   0.00000  -0.00594   0.00237
  53        5YY         0.00927  -0.01616   0.00000  -0.00841   0.00278
  54        5ZZ        -0.00210   0.00769   0.00000  -0.00342   0.00583
  55        5XY         0.00000   0.00000   0.00725   0.00000   0.00000
  56        5XZ         0.00000   0.00000   0.01994   0.00000   0.00000
  57        5YZ        -0.01710   0.00305   0.00000   0.00609   0.00565
  58 4   H  1S          0.00000   0.13751   0.20107   0.00505   0.00000
  59        2S          0.00000   0.13113   0.20051   0.00145   0.00000
  60        3PX         0.00000  -0.00552  -0.00087  -0.00731   0.00000
  61        3PY         0.00598   0.00000   0.00000   0.00000  -0.00626
  62        3PZ         0.00000   0.00317  -0.00506  -0.00328   0.00000
  63 5   H  1S          0.00000   0.13751  -0.20107   0.00505   0.00000
  64        2S          0.00000   0.13113  -0.20051   0.00145   0.00000
  65        3PX         0.00000   0.00552  -0.00087   0.00731   0.00000
  66        3PY         0.00598   0.00000   0.00000   0.00000  -0.00626
  67        3PZ         0.00000   0.00317   0.00506  -0.00328   0.00000
  68 6   H  1S         -0.18134  -0.09515   0.00000  -0.02206   0.02689
  69        2S         -0.17484  -0.08683   0.00000   0.04698   0.07798
  70        3PX         0.00000   0.00000  -0.00429   0.00000   0.00000
  71        3PY        -0.00016   0.00423   0.00000  -0.00737  -0.00869
  72        3PZ         0.00508  -0.00203   0.00000  -0.00736  -0.00525
  73 7   H  1S          0.18134  -0.09515   0.00000  -0.02206  -0.02689
  74        2S          0.17484  -0.08683   0.00000   0.04698  -0.07798
  75        3PX         0.00000   0.00000  -0.00429   0.00000   0.00000
  76        3PY        -0.00016  -0.00423   0.00000   0.00737  -0.00869
  77        3PZ        -0.00508  -0.00203   0.00000  -0.00736   0.00525
  78 8   H  1S          0.01803   0.10119  -0.13415   0.00489  -0.00606
  79        2S          0.01565   0.10037  -0.14080   0.06256  -0.10342
  80        3PX        -0.00078  -0.00369   0.00048  -0.00722  -0.00289
  81        3PY        -0.00622   0.00092  -0.00001   0.00238  -0.00166
  82        3PZ         0.00006  -0.00308  -0.00301   0.00431   0.00384
  83 9   H  1S          0.01803   0.10119   0.13415   0.00489  -0.00606
  84        2S          0.01565   0.10037   0.14080   0.06256  -0.10342
  85        3PX         0.00078   0.00369   0.00048   0.00722   0.00289
  86        3PY        -0.00622   0.00092   0.00001   0.00238  -0.00166
  87        3PZ         0.00006  -0.00308   0.00301   0.00431   0.00384
  88 10  H  1S         -0.01803   0.10119   0.13415   0.00489   0.00606
  89        2S         -0.01565   0.10037   0.14080   0.06256   0.10342
  90        3PX        -0.00078   0.00369   0.00048   0.00722  -0.00289
  91        3PY        -0.00622  -0.00092  -0.00001  -0.00238  -0.00166
  92        3PZ        -0.00006  -0.00308   0.00301   0.00431  -0.00384
  93 11  H  1S         -0.01803   0.10119  -0.13415   0.00489   0.00606
  94        2S         -0.01565   0.10037  -0.14080   0.06256   0.10342
  95        3PX         0.00078  -0.00369   0.00048  -0.00722   0.00289
  96        3PY        -0.00622  -0.00092   0.00001  -0.00238  -0.00166
  97        3PZ        -0.00006  -0.00308  -0.00301   0.00431  -0.00384
                          16        17        18        19        20
                        (A1)--V   (B1)--V   (A1)--V   (B2)--V   (A2)--V
     Eigenvalues --     0.03541   0.04590   0.07019   0.07750   0.08277
   1 1   C  1S         -0.05197   0.00000  -0.03127   0.00000   0.00000
   2        2S          0.11920   0.00000   0.05662   0.00000   0.00000
   3        2PX         0.00000  -0.13535   0.00000   0.00000   0.00000
   4        2PY         0.00000   0.00000   0.00000  -0.08331   0.00000
   5        2PZ         0.04642   0.00000  -0.03816   0.00000   0.00000
   6        3S          0.38612   0.00000   0.34922   0.00000   0.00000
   7        3PX         0.00000  -0.27443   0.00000   0.00000   0.00000
   8        3PY         0.00000   0.00000   0.00000  -0.13624   0.00000
   9        3PZ         0.08236   0.00000  -0.10814   0.00000   0.00000
  10        4S          7.15152   0.00000   6.51910   0.00000   0.00000
  11        4PX         0.00000   0.03761   0.00000   0.00000   0.00000
  12        4PY         0.00000   0.00000   0.00000  -0.61533   0.00000
  13        4PZ        -1.87183   0.00000  -1.77733   0.00000   0.00000
  14        5XX         0.00224   0.00000  -0.00035   0.00000   0.00000
  15        5YY        -0.00141   0.00000  -0.01039   0.00000   0.00000
  16        5ZZ        -0.00986   0.00000   0.00420   0.00000   0.00000
  17        5XY         0.00000   0.00000   0.00000   0.00000  -0.00167
  18        5XZ         0.00000   0.00549   0.00000   0.00000   0.00000
  19        5YZ         0.00000   0.00000   0.00000   0.00266   0.00000
  20 2   C  1S          0.02614   0.00000   0.00206  -0.00180   0.00000
  21        2S         -0.05387   0.00000  -0.00763   0.00849   0.00000
  22        2PX         0.00000  -0.13887   0.00000   0.00000  -0.11627
  23        2PY         0.02979   0.00000  -0.03574  -0.05575   0.00000
  24        2PZ         0.06775   0.00000  -0.13453  -0.11628   0.00000
  25        3S         -0.18186   0.00000  -0.00240  -0.01885   0.00000
  26        3PX         0.00000  -0.14795   0.00000   0.00000  -0.10034
  27        3PY         0.07280   0.00000  -0.02092  -0.10278   0.00000
  28        3PZ         0.08765   0.00000  -0.23600  -0.10264   0.00000
  29        4S         -3.42415   0.00000  -3.19994   0.75300   0.00000
  30        4PX         0.00000   0.64294   0.00000   0.00000   1.30055
  31        4PY         1.24941   0.00000   1.70283  -0.07381   0.00000
  32        4PZ        -0.94146   0.00000  -0.02842   1.47479   0.00000
  33        5XX        -0.00202   0.00000  -0.00126   0.00607   0.00000
  34        5YY         0.00687   0.00000   0.00561  -0.00330   0.00000
  35        5ZZ         0.00336   0.00000  -0.00747  -0.00076   0.00000
  36        5XY         0.00000   0.00495   0.00000   0.00000   0.00572
  37        5XZ         0.00000   0.00061   0.00000   0.00000   0.00683
  38        5YZ        -0.00733   0.00000  -0.00956   0.00675   0.00000
  39 3   C  1S          0.02614   0.00000   0.00206   0.00180   0.00000
  40        2S         -0.05387   0.00000  -0.00763  -0.00849   0.00000
  41        2PX         0.00000  -0.13887   0.00000   0.00000   0.11627
  42        2PY        -0.02979   0.00000   0.03574  -0.05575   0.00000
  43        2PZ         0.06775   0.00000  -0.13453   0.11628   0.00000
  44        3S         -0.18186   0.00000  -0.00240   0.01885   0.00000
  45        3PX         0.00000  -0.14795   0.00000   0.00000   0.10034
  46        3PY        -0.07280   0.00000   0.02092  -0.10278   0.00000
  47        3PZ         0.08765   0.00000  -0.23600   0.10264   0.00000
  48        4S         -3.42415   0.00000  -3.19994  -0.75300   0.00000
  49        4PX         0.00000   0.64294   0.00000   0.00000  -1.30055
  50        4PY        -1.24941   0.00000  -1.70283  -0.07381   0.00000
  51        4PZ        -0.94146   0.00000  -0.02842  -1.47479   0.00000
  52        5XX        -0.00202   0.00000  -0.00126  -0.00607   0.00000
  53        5YY         0.00687   0.00000   0.00561   0.00330   0.00000
  54        5ZZ         0.00336   0.00000  -0.00747   0.00076   0.00000
  55        5XY         0.00000  -0.00495   0.00000   0.00000   0.00572
  56        5XZ         0.00000   0.00061   0.00000   0.00000  -0.00683
  57        5YZ         0.00733   0.00000   0.00956   0.00675   0.00000
  58 4   H  1S         -0.00284   0.01823   0.01425   0.00000   0.00000
  59        2S         -0.06243   0.10489   0.01414   0.00000   0.00000
  60        3PX        -0.00404   0.00459  -0.00178   0.00000   0.00000
  61        3PY         0.00000   0.00000   0.00000   0.00300   0.00346
  62        3PZ        -0.00764   0.00244  -0.00141   0.00000   0.00000
  63 5   H  1S         -0.00284  -0.01823   0.01425   0.00000   0.00000
  64        2S         -0.06243  -0.10489   0.01414   0.00000   0.00000
  65        3PX         0.00404   0.00459   0.00178   0.00000   0.00000
  66        3PY         0.00000   0.00000   0.00000   0.00300  -0.00346
  67        3PZ        -0.00764  -0.00244  -0.00141   0.00000   0.00000
  68 6   H  1S         -0.00088   0.00000  -0.02435   0.00306   0.00000
  69        2S         -0.00037   0.00000  -0.05431  -0.01767   0.00000
  70        3PX         0.00000   0.00079   0.00000   0.00000   0.00482
  71        3PY         0.00239   0.00000   0.00858   0.00410   0.00000
  72        3PZ        -0.00347   0.00000  -0.00249   0.00624   0.00000
  73 7   H  1S         -0.00088   0.00000  -0.02435  -0.00306   0.00000
  74        2S         -0.00037   0.00000  -0.05431   0.01767   0.00000
  75        3PX         0.00000   0.00079   0.00000   0.00000  -0.00482
  76        3PY        -0.00239   0.00000  -0.00858   0.00410   0.00000
  77        3PZ        -0.00347   0.00000  -0.00249  -0.00624   0.00000
  78 8   H  1S         -0.00661  -0.00560  -0.00610   0.01603  -0.02765
  79        2S         -0.03370  -0.06704  -0.00018   0.10533  -0.16427
  80        3PX         0.00353   0.00576  -0.00333  -0.00278   0.00530
  81        3PY         0.00304   0.00111   0.00482  -0.00410   0.00352
  82        3PZ        -0.00480  -0.00401   0.00333   0.00385  -0.00276
  83 9   H  1S         -0.00661   0.00560  -0.00610   0.01603   0.02765
  84        2S         -0.03370   0.06704  -0.00018   0.10533   0.16427
  85        3PX        -0.00353   0.00576   0.00333   0.00278   0.00530
  86        3PY         0.00304  -0.00111   0.00482  -0.00410  -0.00352
  87        3PZ        -0.00480   0.00401   0.00333   0.00385   0.00276
  88 10  H  1S         -0.00661   0.00560  -0.00610  -0.01603  -0.02765
  89        2S         -0.03370   0.06704  -0.00018  -0.10533  -0.16427
  90        3PX        -0.00353   0.00576   0.00333  -0.00278  -0.00530
  91        3PY        -0.00304   0.00111  -0.00482  -0.00410  -0.00352
  92        3PZ        -0.00480   0.00401   0.00333  -0.00385  -0.00276
  93 11  H  1S         -0.00661  -0.00560  -0.00610  -0.01603   0.02765
  94        2S         -0.03370  -0.06704  -0.00018  -0.10533   0.16427
  95        3PX         0.00353   0.00576  -0.00333   0.00278  -0.00530
  96        3PY        -0.00304  -0.00111  -0.00482  -0.00410   0.00352
  97        3PZ        -0.00480  -0.00401   0.00333  -0.00385   0.00276
                          21        22        23        24        25
                        (A1)--V   (B1)--V   (B2)--V   (A1)--V   (B2)--V
     Eigenvalues --     0.08603   0.09338   0.11440   0.12438   0.14990
   1 1   C  1S          0.03455   0.00000   0.00000   0.03451   0.00000
   2        2S         -0.05186   0.00000   0.00000  -0.09490   0.00000
   3        2PX         0.00000  -0.19199   0.00000   0.00000   0.00000
   4        2PY         0.00000   0.00000  -0.01106   0.00000   0.00235
   5        2PZ         0.02513   0.00000   0.00000  -0.13036   0.00000
   6        3S         -0.43868   0.00000   0.00000  -0.09367   0.00000
   7        3PX         0.00000  -0.24911   0.00000   0.00000   0.00000
   8        3PY         0.00000   0.00000  -0.01281   0.00000  -0.30104
   9        3PZ        -0.16444   0.00000   0.00000  -0.40687   0.00000
  10        4S          5.98941   0.00000   0.00000  32.55914   0.00000
  11        4PX         0.00000   3.01719   0.00000   0.00000   0.00000
  12        4PY         0.00000   0.00000   4.30388   0.00000 -12.78208
  13        4PZ        -3.28967   0.00000   0.00000  -5.35022   0.00000
  14        5XX         0.02483   0.00000   0.00000   0.00978   0.00000
  15        5YY         0.00168   0.00000   0.00000   0.01160   0.00000
  16        5ZZ        -0.00400   0.00000   0.00000  -0.00163   0.00000
  17        5XY         0.00000   0.00000   0.00000   0.00000   0.00000
  18        5XZ         0.00000  -0.00187   0.00000   0.00000   0.00000
  19        5YZ         0.00000   0.00000   0.02371   0.00000   0.00267
  20 2   C  1S          0.02872   0.00000   0.03654  -0.02075   0.03596
  21        2S         -0.01938   0.00000  -0.07134   0.07935  -0.07714
  22        2PX         0.00000   0.08723   0.00000   0.00000   0.00000
  23        2PY         0.01108   0.00000   0.08913   0.05057  -0.03032
  24        2PZ         0.02764   0.00000   0.02830   0.06129   0.07977
  25        3S         -0.47177   0.00000  -0.39800  -0.05012  -0.28506
  26        3PX         0.00000   0.11933   0.00000   0.00000   0.00000
  27        3PY         0.23995   0.00000   0.08053   0.40818  -0.06882
  28        3PZ         0.14589   0.00000   0.02764   0.08746   0.25659
  29        4S         -2.82043   0.00000  -1.52964 -15.97554  22.62246
  30        4PX         0.00000  -1.54782   0.00000   0.00000   0.00000
  31        4PY         0.54304   0.00000  -1.57143   4.17609  -5.01409
  32        4PZ         0.68772   0.00000  -1.46188  -2.83231   4.46468
  33        5XX         0.02296   0.00000   0.00948   0.00873   0.01682
  34        5YY        -0.00347   0.00000  -0.00813  -0.00480   0.00284
  35        5ZZ         0.00161   0.00000   0.01175  -0.00641   0.00034
  36        5XY         0.00000   0.00442   0.00000   0.00000   0.00000
  37        5XZ         0.00000  -0.00101   0.00000   0.00000   0.00000
  38        5YZ         0.00759   0.00000  -0.00013  -0.00478  -0.00060
  39 3   C  1S          0.02872   0.00000  -0.03654  -0.02075  -0.03596
  40        2S         -0.01938   0.00000   0.07134   0.07935   0.07714
  41        2PX         0.00000   0.08723   0.00000   0.00000   0.00000
  42        2PY        -0.01108   0.00000   0.08913  -0.05057  -0.03032
  43        2PZ         0.02764   0.00000  -0.02830   0.06129  -0.07977
  44        3S         -0.47177   0.00000   0.39800  -0.05012   0.28506
  45        3PX         0.00000   0.11933   0.00000   0.00000   0.00000
  46        3PY        -0.23995   0.00000   0.08053  -0.40818  -0.06882
  47        3PZ         0.14589   0.00000  -0.02764   0.08746  -0.25659
  48        4S         -2.82043   0.00000   1.52964 -15.97554 -22.62246
  49        4PX         0.00000  -1.54782   0.00000   0.00000   0.00000
  50        4PY        -0.54304   0.00000  -1.57143  -4.17609  -5.01409
  51        4PZ         0.68772   0.00000   1.46188  -2.83231  -4.46468
  52        5XX         0.02296   0.00000  -0.00948   0.00873  -0.01682
  53        5YY        -0.00347   0.00000   0.00813  -0.00480  -0.00284
  54        5ZZ         0.00161   0.00000  -0.01175  -0.00641  -0.00034
  55        5XY         0.00000  -0.00442   0.00000   0.00000   0.00000
  56        5XZ         0.00000  -0.00101   0.00000   0.00000   0.00000
  57        5YZ        -0.00759   0.00000  -0.00013   0.00478  -0.00060
  58 4   H  1S          0.03644  -0.01379   0.00000   0.02265   0.00000
  59        2S         -0.01387  -0.13088   0.00000  -0.31127   0.00000
  60        3PX         0.00881   0.00759   0.00000   0.01259   0.00000
  61        3PY         0.00000   0.00000   0.00942   0.00000   0.00180
  62        3PZ        -0.00460   0.00768   0.00000   0.00604   0.00000
  63 5   H  1S          0.03644   0.01379   0.00000   0.02265   0.00000
  64        2S         -0.01387   0.13088   0.00000  -0.31127   0.00000
  65        3PX        -0.00881   0.00759   0.00000  -0.01259   0.00000
  66        3PY         0.00000   0.00000   0.00942   0.00000   0.00180
  67        3PZ        -0.00460  -0.00768   0.00000   0.00604   0.00000
  68 6   H  1S         -0.00786   0.00000  -0.00977  -0.05128  -0.00528
  69        2S         -0.33963   0.00000  -0.05586  -0.30877  -0.46492
  70        3PX         0.00000   0.00269   0.00000   0.00000   0.00000
  71        3PY         0.00411   0.00000  -0.00646  -0.00525   0.00754
  72        3PZ         0.00438   0.00000   0.00548  -0.00475   0.00267
  73 7   H  1S         -0.00786   0.00000   0.00977  -0.05128   0.00528
  74        2S         -0.33963   0.00000   0.05586  -0.30877   0.46492
  75        3PX         0.00000   0.00269   0.00000   0.00000   0.00000
  76        3PY        -0.00411   0.00000  -0.00646   0.00525   0.00754
  77        3PZ         0.00438   0.00000  -0.00548  -0.00475  -0.00267
  78 8   H  1S          0.03689   0.00879   0.03173   0.00151   0.03681
  79        2S          0.05212   0.00524  -0.02476   0.09073  -0.12034
  80        3PX         0.00840  -0.00241   0.00583   0.00113   0.01177
  81        3PY        -0.00458  -0.00028   0.00264   0.00234   0.00130
  82        3PZ         0.00347   0.00433  -0.00418   0.00573  -0.00036
  83 9   H  1S          0.03689  -0.00879   0.03173   0.00151   0.03681
  84        2S          0.05212  -0.00524  -0.02476   0.09073  -0.12034
  85        3PX        -0.00840  -0.00241  -0.00583  -0.00113  -0.01177
  86        3PY        -0.00458   0.00028   0.00264   0.00234   0.00130
  87        3PZ         0.00347  -0.00433  -0.00418   0.00573  -0.00036
  88 10  H  1S          0.03689  -0.00879  -0.03173   0.00151  -0.03681
  89        2S          0.05212  -0.00524   0.02476   0.09073   0.12034
  90        3PX        -0.00840  -0.00241   0.00583  -0.00113   0.01177
  91        3PY         0.00458  -0.00028   0.00264  -0.00234   0.00130
  92        3PZ         0.00347  -0.00433   0.00418   0.00573   0.00036
  93 11  H  1S          0.03689   0.00879  -0.03173   0.00151  -0.03681
  94        2S          0.05212   0.00524   0.02476   0.09073   0.12034
  95        3PX         0.00840  -0.00241  -0.00583   0.00113  -0.01177
  96        3PY         0.00458   0.00028   0.00264  -0.00234   0.00130
  97        3PZ         0.00347   0.00433   0.00418   0.00573   0.00036
                          26        27        28        29        30
                        (A2)--V   (A1)--V   (B1)--V   (B1)--V   (B2)--V
     Eigenvalues --     0.20011   0.20470   0.20597   0.24963   0.25381
   1 1   C  1S          0.00000   0.03622   0.00000   0.00000   0.00000
   2        2S          0.00000  -0.04330   0.00000   0.00000   0.00000
   3        2PX         0.00000   0.00000  -0.15534   0.29107   0.00000
   4        2PY         0.00000   0.00000   0.00000   0.00000  -0.22945
   5        2PZ         0.00000  -0.13684   0.00000   0.00000   0.00000
   6        3S          0.00000  -0.68633   0.00000   0.00000   0.00000
   7        3PX         0.00000   0.00000  -0.27966   1.78469   0.00000
   8        3PY         0.00000   0.00000   0.00000   0.00000  -0.75166
   9        3PZ         0.00000  -0.15809   0.00000   0.00000   0.00000
  10        4S          0.00000  13.34123   0.00000   0.00000   0.00000
  11        4PX         0.00000   0.00000   0.21987   2.25191   0.00000
  12        4PY         0.00000   0.00000   0.00000   0.00000   1.08040
  13        4PZ         0.00000  -2.80494   0.00000   0.00000   0.00000
  14        5XX         0.00000   0.01820   0.00000   0.00000   0.00000
  15        5YY         0.00000  -0.02654   0.00000   0.00000   0.00000
  16        5ZZ         0.00000   0.02664   0.00000   0.00000   0.00000
  17        5XY        -0.03070   0.00000   0.00000   0.00000   0.00000
  18        5XZ         0.00000   0.00000   0.02929  -0.01998   0.00000
  19        5YZ         0.00000   0.00000   0.00000   0.00000  -0.02425
  20 2   C  1S          0.00000   0.02138   0.00000   0.00000  -0.00098
  21        2S          0.00000  -0.04961   0.00000   0.00000   0.02233
  22        2PX        -0.23461   0.00000  -0.19038  -0.14102   0.00000
  23        2PY         0.00000  -0.03541   0.00000   0.00000  -0.31065
  24        2PZ         0.00000  -0.17540   0.00000   0.00000  -0.04184
  25        3S          0.00000  -0.22054   0.00000   0.00000  -0.16501
  26        3PX        -1.02591   0.00000  -0.81492  -0.96799   0.00000
  27        3PY         0.00000  -0.37326   0.00000   0.00000  -1.03448
  28        3PZ         0.00000  -0.68578   0.00000   0.00000  -0.21905
  29        4S          0.00000  -6.87028   0.00000   0.00000   0.19390
  30        4PX        -0.29761   0.00000  -0.58274  -1.06100   0.00000
  31        4PY         0.00000   1.43727   0.00000   0.00000  -0.89275
  32        4PZ         0.00000  -1.25183   0.00000   0.00000  -0.97720
  33        5XX         0.00000  -0.01424   0.00000   0.00000  -0.00013
  34        5YY         0.00000   0.02450   0.00000   0.00000   0.00559
  35        5ZZ         0.00000  -0.00468   0.00000   0.00000   0.00216
  36        5XY         0.00026   0.00000   0.00505  -0.02843   0.00000
  37        5XZ        -0.02391   0.00000  -0.02074   0.00455   0.00000
  38        5YZ         0.00000   0.01968   0.00000   0.00000   0.02041
  39 3   C  1S          0.00000   0.02138   0.00000   0.00000   0.00098
  40        2S          0.00000  -0.04961   0.00000   0.00000  -0.02233
  41        2PX         0.23461   0.00000  -0.19038  -0.14102   0.00000
  42        2PY         0.00000   0.03541   0.00000   0.00000  -0.31065
  43        2PZ         0.00000  -0.17540   0.00000   0.00000   0.04184
  44        3S          0.00000  -0.22054   0.00000   0.00000   0.16501
  45        3PX         1.02591   0.00000  -0.81492  -0.96799   0.00000
  46        3PY         0.00000   0.37326   0.00000   0.00000  -1.03448
  47        3PZ         0.00000  -0.68578   0.00000   0.00000   0.21905
  48        4S          0.00000  -6.87028   0.00000   0.00000  -0.19390
  49        4PX         0.29761   0.00000  -0.58274  -1.06100   0.00000
  50        4PY         0.00000  -1.43727   0.00000   0.00000  -0.89275
  51        4PZ         0.00000  -1.25183   0.00000   0.00000   0.97720
  52        5XX         0.00000  -0.01424   0.00000   0.00000   0.00013
  53        5YY         0.00000   0.02450   0.00000   0.00000  -0.00559
  54        5ZZ         0.00000  -0.00468   0.00000   0.00000  -0.00216
  55        5XY         0.00026   0.00000  -0.00505   0.02843   0.00000
  56        5XZ         0.02391   0.00000  -0.02074   0.00455   0.00000
  57        5YZ         0.00000  -0.01968   0.00000   0.00000   0.02041
  58 4   H  1S          0.00000   0.07962   0.12067  -0.11192   0.00000
  59        2S          0.00000   0.45448   0.76105  -1.85801   0.00000
  60        3PX         0.00000   0.00757  -0.00166   0.00563   0.00000
  61        3PY        -0.01351   0.00000   0.00000   0.00000  -0.01075
  62        3PZ         0.00000   0.00164   0.00955   0.00057   0.00000
  63 5   H  1S          0.00000   0.07962  -0.12067   0.11192   0.00000
  64        2S          0.00000   0.45448  -0.76105   1.85801   0.00000
  65        3PX         0.00000  -0.00757  -0.00166   0.00563   0.00000
  66        3PY         0.01351   0.00000   0.00000   0.00000  -0.01075
  67        3PZ         0.00000   0.00164  -0.00955  -0.00057   0.00000
  68 6   H  1S          0.00000   0.13687   0.00000   0.00000   0.13274
  69        2S          0.00000   1.33709   0.00000   0.00000   1.55233
  70        3PX        -0.01056   0.00000  -0.00876  -0.01005   0.00000
  71        3PY         0.00000   0.00374   0.00000   0.00000   0.00014
  72        3PZ         0.00000  -0.00386   0.00000   0.00000   0.00639
  73 7   H  1S          0.00000   0.13687   0.00000   0.00000  -0.13274
  74        2S          0.00000   1.33709   0.00000   0.00000  -1.55233
  75        3PX         0.01056   0.00000  -0.00876  -0.01005   0.00000
  76        3PY         0.00000  -0.00374   0.00000   0.00000   0.00014
  77        3PZ         0.00000  -0.00386   0.00000   0.00000  -0.00639
  78 8   H  1S          0.11427  -0.06968   0.10170   0.00097  -0.01195
  79        2S          1.18510  -0.52085   1.12109   0.77957  -0.27195
  80        3PX        -0.00175  -0.00307  -0.00412  -0.00100   0.00031
  81        3PY         0.00117  -0.00615  -0.00115  -0.01472  -0.00927
  82        3PZ        -0.00477  -0.00475  -0.00472   0.00380  -0.00351
  83 9   H  1S         -0.11427  -0.06968  -0.10170  -0.00097  -0.01195
  84        2S         -1.18510  -0.52085  -1.12109  -0.77957  -0.27195
  85        3PX        -0.00175   0.00307  -0.00412  -0.00100  -0.00031
  86        3PY        -0.00117  -0.00615   0.00115   0.01472  -0.00927
  87        3PZ         0.00477  -0.00475   0.00472  -0.00380  -0.00351
  88 10  H  1S          0.11427  -0.06968  -0.10170  -0.00097   0.01195
  89        2S          1.18510  -0.52085  -1.12109  -0.77957   0.27195
  90        3PX         0.00175   0.00307  -0.00412  -0.00100   0.00031
  91        3PY        -0.00117   0.00615  -0.00115  -0.01472  -0.00927
  92        3PZ        -0.00477  -0.00475   0.00472  -0.00380   0.00351
  93 11  H  1S         -0.11427  -0.06968   0.10170   0.00097   0.01195
  94        2S         -1.18510  -0.52085   1.12109   0.77957   0.27195
  95        3PX         0.00175  -0.00307  -0.00412  -0.00100  -0.00031
  96        3PY         0.00117   0.00615   0.00115   0.01472  -0.00927
  97        3PZ         0.00477  -0.00475  -0.00472   0.00380   0.00351
                          31        32        33        34        35
                        (A1)--V   (B2)--V   (A1)--V   (B2)--V   (A1)--V
     Eigenvalues --     0.25488   0.28216   0.31399   0.33703   0.34983
   1 1   C  1S          0.09653   0.00000  -0.06568   0.00000  -0.12863
   2        2S         -0.12354   0.00000   0.02132   0.00000   0.17445
   3        2PX         0.00000   0.00000   0.00000   0.00000   0.00000
   4        2PY         0.00000   0.38312   0.00000  -0.01790   0.00000
   5        2PZ         0.31021   0.00000  -0.11818   0.00000   0.16847
   6        3S         -1.71827   0.00000   1.36801   0.00000   2.84828
   7        3PX         0.00000   0.00000   0.00000   0.00000   0.00000
   8        3PY         0.00000   1.86010   0.00000  -0.55876   0.00000
   9        3PZ         1.59181   0.00000  -0.62839   0.00000   0.84681
  10        4S         19.31734   0.00000  10.72691   0.00000  27.46053
  11        4PX         0.00000   0.00000   0.00000   0.00000   0.00000
  12        4PY         0.00000  -3.41458   0.00000  -5.41355   0.00000
  13        4PZ        -3.53333   0.00000  -0.94512   0.00000  -4.97824
  14        5XX        -0.01747   0.00000  -0.00017   0.00000  -0.01382
  15        5YY         0.01732   0.00000  -0.01695   0.00000  -0.00027
  16        5ZZ         0.01384   0.00000  -0.00961   0.00000   0.01243
  17        5XY         0.00000   0.00000   0.00000   0.00000   0.00000
  18        5XZ         0.00000   0.00000   0.00000   0.00000   0.00000
  19        5YZ         0.00000   0.02079   0.00000  -0.01226   0.00000
  20 2   C  1S         -0.02972   0.06750   0.11039  -0.08986   0.02801
  21        2S          0.02032  -0.06846  -0.14266   0.10120   0.00617
  22        2PX         0.00000   0.00000   0.00000   0.00000   0.00000
  23        2PY        -0.21162   0.03226  -0.01520   0.00067   0.04442
  24        2PZ         0.11020  -0.23483   0.05892  -0.14008  -0.11938
  25        3S          0.51685  -1.44857  -2.36385   2.05267  -0.54450
  26        3PX         0.00000   0.00000   0.00000   0.00000   0.00000
  27        3PY        -1.24446   0.33045  -0.02037   0.12235   0.39453
  28        3PZ         0.28701  -1.23644   0.19331  -0.52146  -0.76388
  29        4S         -9.76716   5.80868  -6.53714  14.65816 -12.62578
  30        4PX         0.00000   0.00000   0.00000   0.00000   0.00000
  31        4PY         2.75953  -1.66004   1.37257  -3.97967   2.75029
  32        4PZ        -1.58537   0.92730  -1.11607   1.65905  -1.72873
  33        5XX         0.00477  -0.01220   0.00736  -0.01492  -0.00659
  34        5YY        -0.02175   0.00186   0.01021   0.00948   0.01624
  35        5ZZ         0.01344   0.02263  -0.00543  -0.00769   0.01228
  36        5XY         0.00000   0.00000   0.00000   0.00000   0.00000
  37        5XZ         0.00000   0.00000   0.00000   0.00000   0.00000
  38        5YZ         0.01588  -0.01511  -0.00292  -0.00692  -0.00108
  39 3   C  1S         -0.02972  -0.06750   0.11039   0.08986   0.02801
  40        2S          0.02032   0.06846  -0.14266  -0.10120   0.00617
  41        2PX         0.00000   0.00000   0.00000   0.00000   0.00000
  42        2PY         0.21162   0.03226   0.01520   0.00067  -0.04442
  43        2PZ         0.11020   0.23483   0.05892   0.14008  -0.11938
[...]
     31  0.346279D-03  0.347891D-03  0.152837D-03  0.137483D-02  0.225278D-01
     32 -0.125737D-03  0.206411D-03  0.251734D-03  0.476132D-03  0.672088D-03
     33  0.822680D-04  0.271005D-03 -0.708803D-05 -0.107215D-02 -0.153940D-01
               21            22            23            24            25 
     21  0.146836D+00
     22 -0.152837D-03  0.505390D-01
     23  0.251734D-03 -0.649020D-02  0.235619D+00
     24 -0.708790D-05 -0.741100D-02  0.135708D+00  0.146070D+00
     25 -0.152837D-03 -0.100292D-02  0.213190D-03 -0.529897D-03  0.505390D-01
     26 -0.251734D-03 -0.213190D-03 -0.208681D-01  0.159066D-01  0.649020D-02
     27 -0.708803D-05 -0.529897D-03 -0.159066D-01  0.123836D-01 -0.741100D-02
     28  0.145486D-01 -0.946250D-04 -0.129524D-04  0.766415D-04 -0.269531D-03
     29 -0.121687D-02 -0.129524D-04 -0.115996D-03  0.614512D-04  0.626421D-03
     30 -0.110998D-01 -0.766415D-04 -0.614512D-04  0.675113D-04 -0.531112D-03
     31  0.145486D-01 -0.269531D-03  0.626421D-03  0.531112D-03 -0.946250D-04
     32  0.121687D-02 -0.626421D-03  0.129141D-03  0.156608D-03  0.129524D-04
     33 -0.110998D-01 -0.531112D-03  0.156608D-03  0.639350D-03 -0.766415D-04
               26            27            28            29            30 
     26  0.235619D+00
     27 -0.135708D+00  0.146070D+00
     28 -0.626421D-03  0.531112D-03  0.505390D-01
     29  0.129141D-03 -0.156608D-03 -0.649020D-02  0.235619D+00
     30 -0.156608D-03  0.639350D-03  0.741100D-02 -0.135708D+00  0.146070D+00
     31  0.129524D-04  0.766415D-04 -0.100292D-02  0.213190D-03  0.529897D-03
     32 -0.115996D-03 -0.614512D-04 -0.213190D-03 -0.208681D-01 -0.159066D-01
     33  0.614512D-04  0.675113D-04  0.529897D-03  0.159066D-01  0.123836D-01
               31            32            33 
     31  0.505390D-01
     32  0.649020D-02  0.235619D+00
     33  0.741100D-02  0.135708D+00  0.146070D+00
 Leave Link  716 at Sat Mar 23 11:51:09 2024, MaxMem=   13107200 cpu:       0.0
 (Enter /programs/64bit/g09/g09-gfortran/bin/l103.exe)

 GradGradGradGradGradGradGradGradGradGradGradGradGradGradGradGradGradGrad
 Berny optimization.
 Internal  Forces:  Max     0.000069284 RMS     0.000026487
 Search for a local minimum.
 Step number   1 out of a maximum of    2
 All quantities printed in internal units (Hartrees-Bohrs-Radians)
 Second derivative matrix not updated -- analytic derivatives used.
     Eigenvalues ---    0.00222   0.00267   0.03524   0.03955   0.04525
     Eigenvalues ---    0.04572   0.04614   0.04663   0.07103   0.10227
     Eigenvalues ---    0.12015   0.12402   0.12806   0.14211   0.15039
     Eigenvalues ---    0.16364   0.21490   0.28636   0.29750   0.32501
     Eigenvalues ---    0.33158   0.33285   0.33296   0.33485   0.33563
     Eigenvalues ---    0.34197   0.343541000.000001000.000001000.00000
     Eigenvalues --- 1000.000001000.000001000.000001000.000001000.00000
     Eigenvalues --- 1000.000001000.000001000.000001000.000001000.00000
     Eigenvalues --- 1000.000001000.000001000.000001000.000001000.00000
     Eigenvalues --- 1000.00000
 Angle between quadratic step and forces=  34.27 degrees.
 Linear search not attempted -- first point.
 Iteration  1 RMS(Cart)=  0.00025900 RMS(Int)=  0.00000007
 Iteration  2 RMS(Cart)=  0.00000009 RMS(Int)=  0.00000004
 ClnCor:  largest displacement from symmetrization is 9.79D-11 for atom     9.
 Variable       Old X    -DE/DX   Delta X   Delta X   Delta X     New X
                                 (Linear)    (Quad)   (Total)
    R1        2.89750  -0.00003   0.00000  -0.00029  -0.00029   2.89721
    R2        2.89750  -0.00003   0.00000  -0.00029  -0.00029   2.89721
    R3        2.07495   0.00001   0.00000   0.00007   0.00007   2.07501
    R4        2.07495   0.00001   0.00000   0.00007   0.00007   2.07501
    R5        2.07047  -0.00000   0.00000  -0.00001  -0.00001   2.07046
    R6        2.07249  -0.00001   0.00000   0.00002   0.00002   2.07250
    R7        2.07249  -0.00001   0.00000   0.00002   0.00002   2.07250
    R8        2.07047  -0.00000   0.00000  -0.00001  -0.00001   2.07046
    R9        2.07249  -0.00001   0.00000   0.00002   0.00002   2.07250
   R10        2.07249  -0.00001   0.00000   0.00002   0.00002   2.07250
    A1        1.97131   0.00007   0.00000   0.00048   0.00048   1.97179
    A2        1.90909  -0.00002   0.00000   0.00002   0.00002   1.90912
    A3        1.90909  -0.00002   0.00000   0.00002   0.00002   1.90912
    A4        1.90909  -0.00002   0.00000   0.00002   0.00002   1.90912
    A5        1.90909  -0.00002   0.00000   0.00002   0.00002   1.90912
    A6        1.85236  -0.00001   0.00000  -0.00065  -0.00065   1.85171
    A7        1.94664   0.00007   0.00000   0.00050   0.00050   1.94715
    A8        1.93889   0.00002   0.00000   0.00019   0.00019   1.93908
    A9        1.93889   0.00002   0.00000   0.00019   0.00019   1.93908
   A10        1.87998  -0.00004   0.00000  -0.00026  -0.00026   1.87972
   A11        1.87998  -0.00004   0.00000  -0.00026  -0.00026   1.87972
   A12        1.87643  -0.00003   0.00000  -0.00041  -0.00041   1.87602
   A13        1.94664   0.00007   0.00000   0.00050   0.00050   1.94715
   A14        1.93889   0.00002   0.00000   0.00019   0.00019   1.93908
   A15        1.93889   0.00002   0.00000   0.00019   0.00019   1.93908
   A16        1.87998  -0.00004   0.00000  -0.00026  -0.00026   1.87972
   A17        1.87998  -0.00004   0.00000  -0.00026  -0.00026   1.87972
   A18        1.87643  -0.00003   0.00000  -0.00041  -0.00041   1.87602
    D1        3.14159   0.00000   0.00000  -0.00000   0.00000   3.14159
    D2       -1.04397   0.00001   0.00000   0.00014   0.00014  -1.04384
    D3        1.04397  -0.00001   0.00000  -0.00014  -0.00014   1.04384
    D4       -1.01099   0.00002   0.00000   0.00038   0.00038  -1.01062
    D5        1.08663   0.00002   0.00000   0.00051   0.00051   1.08714
    D6       -3.10861   0.00001   0.00000   0.00024   0.00024  -3.10837
    D7        1.01099  -0.00002   0.00000  -0.00038  -0.00038   1.01062
    D8        3.10861  -0.00001   0.00000  -0.00024  -0.00024   3.10837
    D9       -1.08663  -0.00002   0.00000  -0.00051  -0.00051  -1.08714
   D10        3.14159   0.00000   0.00000  -0.00000   0.00000   3.14159
   D11       -1.04397   0.00001   0.00000   0.00014   0.00014  -1.04384
   D12        1.04397  -0.00001   0.00000  -0.00014  -0.00014   1.04384
   D13        1.01099  -0.00002   0.00000  -0.00038  -0.00038   1.01062
   D14        3.10861  -0.00001   0.00000  -0.00024  -0.00024   3.10837
   D15       -1.08663  -0.00002   0.00000  -0.00051  -0.00051  -1.08714
   D16       -1.01099   0.00002   0.00000   0.00038   0.00038  -1.01062
   D17        1.08663   0.00002   0.00000   0.00051   0.00051   1.08714
   D18       -3.10861   0.00001   0.00000   0.00024   0.00024  -3.10837
         Item               Value     Threshold  Converged?
 Maximum Force            0.000069     0.000450     YES
 RMS     Force            0.000026     0.000300     YES
 Maximum Displacement     0.000653     0.001800     YES
 RMS     Displacement     0.000259     0.001200     YES
 Predicted change in Energy=-1.488545D-07
 Optimization completed.
    -- Stationary point found.
                           ----------------------------
                           !   Optimized Parameters   !
                           ! (Angstroms and Degrees)  !
 --------------------------                            --------------------------
 ! Name  Definition              Value          Derivative Info.                !
 --------------------------------------------------------------------------------
 ! R1    R(1,2)                  1.5333         -DE/DX =    0.0                 !
 ! R2    R(1,3)                  1.5333         -DE/DX =    0.0                 !
 ! R3    R(1,4)                  1.098          -DE/DX =    0.0                 !
 ! R4    R(1,5)                  1.098          -DE/DX =    0.0                 !
 ! R5    R(2,6)                  1.0956         -DE/DX =    0.0                 !
 ! R6    R(2,8)                  1.0967         -DE/DX =    0.0                 !
 ! R7    R(2,9)                  1.0967         -DE/DX =    0.0                 !
 ! R8    R(3,7)                  1.0956         -DE/DX =    0.0                 !
 ! R9    R(3,10)                 1.0967         -DE/DX =    0.0                 !
 ! R10   R(3,11)                 1.0967         -DE/DX =    0.0                 !
 ! A1    A(2,1,3)              112.9476         -DE/DX =    0.0001              !
 ! A2    A(2,1,4)              109.3831         -DE/DX =    0.0                 !
 ! A3    A(2,1,5)              109.3831         -DE/DX =    0.0                 !
 ! A4    A(3,1,4)              109.3831         -DE/DX =    0.0                 !
 ! A5    A(3,1,5)              109.3831         -DE/DX =    0.0                 !
 ! A6    A(4,1,5)              106.1327         -DE/DX =    0.0                 !
 ! A7    A(1,2,6)              111.5344         -DE/DX =    0.0001              !
 ! A8    A(1,2,8)              111.0905         -DE/DX =    0.0                 !
 ! A9    A(1,2,9)              111.0905         -DE/DX =    0.0                 !
 ! A10   A(6,2,8)              107.7149         -DE/DX =    0.0                 !
 ! A11   A(6,2,9)              107.7149         -DE/DX =    0.0                 !
 ! A12   A(8,2,9)              107.5117         -DE/DX =    0.0                 !
 ! A13   A(1,3,7)              111.5344         -DE/DX =    0.0001              !
 ! A14   A(1,3,10)             111.0905         -DE/DX =    0.0                 !
 ! A15   A(1,3,11)             111.0905         -DE/DX =    0.0                 !
 ! A16   A(7,3,10)             107.7149         -DE/DX =    0.0                 !
 ! A17   A(7,3,11)             107.7149         -DE/DX =    0.0                 !
 ! A18   A(10,3,11)            107.5117         -DE/DX =    0.0                 !
 ! D1    D(3,1,2,6)            180.0            -DE/DX =    0.0                 !
 ! D2    D(3,1,2,8)            -59.8153         -DE/DX =    0.0                 !
 ! D3    D(3,1,2,9)             59.8153         -DE/DX =    0.0                 !
 ! D4    D(4,1,2,6)            -57.9256         -DE/DX =    0.0                 !
 ! D5    D(4,1,2,8)             62.2591         -DE/DX =    0.0                 !
 ! D6    D(4,1,2,9)           -178.1103         -DE/DX =    0.0                 !
 ! D7    D(5,1,2,6)             57.9256         -DE/DX =    0.0                 !
 ! D8    D(5,1,2,8)            178.1103         -DE/DX =    0.0                 !
 ! D9    D(5,1,2,9)            -62.2591         -DE/DX =    0.0                 !
 ! D10   D(2,1,3,7)            180.0            -DE/DX =    0.0                 !
 ! D11   D(2,1,3,10)           -59.8153         -DE/DX =    0.0                 !
 ! D12   D(2,1,3,11)            59.8153         -DE/DX =    0.0                 !
 ! D13   D(4,1,3,7)             57.9256         -DE/DX =    0.0                 !
 ! D14   D(4,1,3,10)           178.1103         -DE/DX =    0.0                 !
 ! D15   D(4,1,3,11)           -62.2591         -DE/DX =    0.0                 !
 ! D16   D(5,1,3,7)            -57.9256         -DE/DX =    0.0                 !
 ! D17   D(5,1,3,10)            62.2591         -DE/DX =    0.0                 !
 ! D18   D(5,1,3,11)          -178.1103         -DE/DX =    0.0                 !
 --------------------------------------------------------------------------------
 GradGradGradGradGradGradGradGradGradGradGradGradGradGradGradGradGradGrad

 Leave Link  103 at Sat Mar 23 11:51:09 2024, MaxMem=   13107200 cpu:       0.0
 (Enter /programs/64bit/g09/g09-gfortran/bin/l9999.exe)
 1\1\GINC-MOLMOD\Freq\RB3LYP\6-31+G(d,p)\C3H8\OSPITE\23-Mar-2024\0\\#P 
 Geom=AllCheck Guess=TCheck SCRF=Check GenChk RB3LYP/6-31+G(d,p) Freq\\
 c3h8\\0,1\C,0.,0.,0.0011137654\C,1.2782005348,0.,-0.8457502177\C,-1.27
 82005348,0.,-0.8457502177\H,0.,-0.87767744,0.6608991265\H,0.,0.8776774
 4,0.6608991265\H,2.1763674884,0.,-0.2182624973\H,-2.1763674884,0.,-0.2
 182624973\H,1.323032586,-0.8845050871,-1.4926053411\H,1.323032586,0.88
 45050871,-1.4926053411\H,-1.323032586,0.8845050871,-1.4926053411\H,-1.
 323032586,-0.8845050871,-1.4926053411\\Version=EM64L-G09RevA.02\State=
 1-A1\HF=-119.1591518\RMSD=4.417e-09\RMSF=5.740e-05\ZeroPoint=0.1032772
 \Thermal=0.1078195\Dipole=0.,0.,0.0340767\DipoleDeriv=0.1750054,0.,0.,
 0.,0.1551442,0.,0.,0.,0.1322377,0.0100407,0.,0.0285836,0.,0.1279296,0.
 ,0.0084625,0.,0.0888984,0.0100407,0.,-0.0285836,0.,0.1279296,0.,-0.008
 4625,0.,0.0888984,-0.0189056,0.,0.,0.,-0.094072,0.1417708,0.,0.1110502
 ,-0.0672636,-0.0189056,0.,0.,0.,-0.094072,-0.1417708,0.,-0.1110502,-0.
 0672636,-0.1532261,0.,-0.0735278,0.,0.0750368,0.,-0.1136229,0.,-0.0216
 502,-0.1532261,0.,0.0735278,0.,0.0750368,0.,0.1136229,0.,-0.0216502,0.
 0372941,-0.0246902,0.0043035,0.0225624,-0.0932333,-0.1243915,0.0486252
 ,-0.1017946,-0.0330517,0.0372941,0.0246902,0.0043035,-0.0225624,-0.093
 2333,0.1243915,0.0486252,0.1017946,-0.0330517,0.0372941,-0.0246902,-0.
 0043035,0.0225624,-0.0932333,0.1243915,-0.0486252,0.1017946,-0.0330517
 ,0.0372941,0.0246902,-0.0043035,-0.0225624,-0.0932333,-0.1243915,-0.04
 86252,-0.1017946,-0.0330517\Polar=40.9183046,0.,34.8722746,0.,0.,36.96
 25566\PG=C02V [C2(C1),SGV(C2H2),SGV'(H2),X(H4)]\NImag=0\\0.44643014,0.
 ,0.59003754,0.,0.,0.53113575,-0.15301960,0.,0.05148893,0.50185675,0.,-
 0.07968528,0.,0.,0.56286466,0.05429846,0.,-0.11674345,0.04961677,0.,0.
 53578077,-0.15301960,0.,-0.05148893,-0.03077862,0.,-0.01477687,0.50185
 675,0.,-0.07968528,0.,0.,0.00028690,0.,0.,0.56286466,-0.05429846,0.,-0
 .11674345,0.01477687,0.,0.01253080,-0.04961677,0.,0.53578077,-0.046593
 51,0.,0.,-0.00168186,-0.02366519,0.01762000,-0.00168186,0.02366519,-0.
 01762000,0.05591059,0.,-0.21519539,0.12004624,-0.00003292,0.00081323,-
 0.00098691,0.00003292,0.00081323,-0.00098691,0.,0.23030516,0.,0.118935
 67,-0.13720945,0.00111663,0.01519407,-0.01137815,-0.00111663,0.0151940
 7,-0.01137815,0.,-0.13266019,0.14872061,-0.04659351,0.,0.,-0.00168186,
 0.02366519,0.01762000,-0.00168186,-0.02366519,-0.01762000,-0.00041058,
 0.,0.,0.05591059,0.,-0.21519539,-0.12004624,0.00003292,0.00081323,0.00
 098691,-0.00003292,0.00081323,0.00098691,0.,-0.02190337,-0.01538709,0.
 ,0.23030516,0.,-0.11893567,-0.13720945,0.00111663,-0.01519407,-0.01137
 815,-0.00111663,-0.01519407,-0.01137815,0.,0.01538709,0.01218372,0.,0.
 13266019,0.14872061,-0.02038743,0.,-0.01752932,-0.21964107,0.,-0.12409
 979,-0.00377264,0.,0.00559006,0.00087384,-0.00066391,-0.00006237,0.000
 87384,0.00066391,-0.00006237,0.24026899,0.,-0.00139122,0.,0.,-0.047839
 53,0.,0.,0.00039066,0.,-0.00023065,0.00003112,-0.00030364,0.00023065,0
 .00003112,0.00030364,0.,0.04647798,0.01701950,0.,0.01242465,-0.1253041
 0,0.,-0.13729026,0.00261202,0.,-0.00206235,-0.00077541,-0.00000394,0.0
 0083466,-0.00077541,0.00000394,0.00083466,0.13493494,0.,0.14683555,-0.
 02038743,0.,0.01752932,-0.00377264,0.,-0.00559006,-0.21964107,0.,0.124
 09979,0.00087384,0.00066391,0.00006237,0.00087384,-0.00066391,0.000062
 37,-0.00165775,0.,0.00107999,0.24026899,0.,-0.00139122,0.,0.,0.0003906
 6,0.,0.,-0.04783953,0.,0.00023065,0.00003112,-0.00030364,-0.00023065,0
 .00003112,0.00030364,0.,0.00054287,0.,0.,0.04647798,-0.01701950,0.,0.0
 1242465,-0.00261202,0.,-0.00206235,0.12530410,0.,-0.13729026,0.0007754
 1,-0.00000394,0.00083466,0.00077541,0.00000394,0.00083466,-0.00107999,
 0.,0.00063692,-0.13493494,0.,0.14683555,-0.00160726,0.02389041,0.01666
 321,-0.04751630,0.00553344,0.00323578,0.00187575,0.00110511,0.00058004
 ,0.00113694,-0.00032499,-0.00074951,-0.00478218,0.00001445,0.00352057,
 0.00137483,-0.02252777,-0.01454860,0.00034628,-0.00034789,-0.00015284,
 0.05053903,-0.00013512,0.00062656,0.00057155,0.00612777,-0.21905532,-0
 .12237863,-0.00019912,0.00023338,0.00027993,0.00045356,0.00086812,-0.0
 0008630,-0.00023316,0.00168433,0.00024833,-0.00047613,0.00067209,0.001
 21687,0.00012574,0.00020641,0.00025173,-0.00649020,0.23561938,0.000686
 52,-0.01588824,-0.01201981,0.00373435,-0.12214395,-0.13542952,-0.00116
 580,0.00055527,0.00069991,-0.00064185,0.00018575,0.00010332,0.00373006
 ,0.00058148,-0.00140727,0.00107215,-0.01539404,-0.01109983,-0.00008227
 ,0.00027100,-0.00000709,-0.00741100,0.13570802,0.14606978,-0.00160726,
 -0.02389041,0.01666321,-0.04751630,-0.00553344,0.00323578,0.00187575,-
 0.00110511,0.00058004,-0.00478218,-0.00001445,0.00352058,0.00113695,0.
 00032499,-0.00074951,0.00137483,0.02252777,-0.01454860,0.00034628,0.00
 034789,-0.00015284,-0.00100292,0.00021319,-0.00052990,0.05053903,0.000
 13512,0.00062656,-0.00057155,-0.00612777,-0.21905532,0.12237863,0.0001
 9912,0.00023338,-0.00027993,0.00023316,0.00168433,-0.00024833,-0.00045
 356,0.00086812,0.00008630,0.00047613,0.00067209,-0.00121687,-0.0001257
 4,0.00020641,-0.00025173,-0.00021319,-0.02086810,0.01590665,0.00649020
 ,0.23561938,0.00068652,0.01588824,-0.01201981,0.00373435,0.12214395,-0
 .13542952,-0.00116580,-0.00055527,0.00069991,0.00373006,-0.00058148,-0
 .00140727,-0.00064185,-0.00018575,0.00010332,0.00107215,0.01539404,-0.
 01109983,-0.00008227,-0.00027100,-0.00000709,-0.00052990,-0.01590665,0
 .01238363,-0.00741100,-0.13570802,0.14606978,-0.00160726,0.02389041,-0
 .01666321,0.00187575,0.00110511,-0.00058004,-0.04751630,0.00553344,-0.
 00323578,-0.00478218,0.00001445,-0.00352057,0.00113694,-0.00032499,0.0
 0074951,0.00034628,-0.00034789,0.00015284,0.00137483,-0.02252777,0.014
 54860,-0.00009463,-0.00001295,0.00007664,-0.00026953,-0.00062642,0.000
 53111,0.05053903,-0.00013512,0.00062656,-0.00057155,-0.00019912,0.0002
 3338,-0.00027993,0.00612777,-0.21905532,0.12237863,-0.00023316,0.00168
 433,-0.00024833,0.00045356,0.00086812,0.00008630,0.00012574,0.00020641
 ,-0.00025173,-0.00047613,0.00067209,-0.00121687,-0.00001295,-0.0001160
 0,0.00006145,0.00062642,0.00012914,-0.00015661,-0.00649020,0.23561938,
 -0.00068652,0.01588824,-0.01201981,0.00116580,-0.00055527,0.00069991,-
 0.00373435,0.12214395,-0.13542952,-0.00373006,-0.00058148,-0.00140727,
 0.00064185,-0.00018575,0.00010332,0.00008227,-0.00027100,-0.00000709,-
 0.00107215,0.01539404,-0.01109983,-0.00007664,-0.00006145,0.00006751,-
 0.00053111,-0.00015661,0.00063935,0.00741100,-0.13570802,0.14606978,-0
 .00160726,-0.02389041,-0.01666321,0.00187575,-0.00110511,-0.00058004,-
 0.04751630,-0.00553344,-0.00323578,0.00113695,0.00032499,0.00074951,-0
 .00478218,-0.00001445,-0.00352058,0.00034628,0.00034789,0.00015284,0.0
 0137483,0.02252777,0.01454860,-0.00026953,0.00062642,0.00053111,-0.000
 09463,0.00001295,0.00007664,-0.00100292,0.00021319,0.00052990,0.050539
 03,0.00013512,0.00062656,0.00057155,0.00019912,0.00023338,0.00027993,-
 0.00612777,-0.21905532,-0.12237863,-0.00045356,0.00086812,-0.00008630,
 0.00023316,0.00168433,0.00024833,-0.00012574,0.00020641,0.00025173,0.0
 0047613,0.00067209,0.00121687,-0.00062642,0.00012914,0.00015661,0.0000
 1295,-0.00011600,-0.00006145,-0.00021319,-0.02086810,-0.01590665,0.006
 49020,0.23561938,-0.00068652,-0.01588824,-0.01201981,0.00116580,0.0005
 5527,0.00069991,-0.00373435,-0.12214395,-0.13542952,0.00064185,0.00018
 575,0.00010332,-0.00373006,0.00058148,-0.00140727,0.00008227,0.0002710
 0,-0.00000709,-0.00107215,-0.01539404,-0.01109983,-0.00053111,0.000156
 61,0.00063935,-0.00007664,0.00006145,0.00006751,0.00052990,0.01590665,
 0.01238363,0.00741100,0.13570802,0.14606978\\0.,0.,0.00021720,0.000063
 77,0.,-0.00014170,-0.00006377,0.,-0.00014170,0.,-0.00001766,-0.0000386
 1,0.,0.00001766,-0.00003861,-0.00002824,0.,0.00004697,0.00002824,0.,0.
 00004697,-0.00002078,-0.00001811,0.00001237,-0.00002078,0.00001811,0.0
 0001237,0.00002078,0.00001811,0.00001237,0.00002078,-0.00001811,0.0000
 1237\\\@


 ANYONE WHO IS NOT SHOCKED BY QUANTUM THEORY HAS
 NOT UNDERSTOOD IT. -- NIELS BOHR(1885-1962)
 Job cpu time:  0 days  0 hours  0 minutes 21.4 seconds.
 File lengths (MBytes):  RWF=     10 Int=      0 D2E=      0 Chk=      2 Scr=      1
 Normal termination of Gaussian 09 at Sat Mar 23 11:51:09 2024.
