 Entering Gaussian System, Link 0=g09
 Input=H2.com
 Output=H2.log
 Initial command:
 /programs/64bit/g09/g09-gfortran/bin/l1.exe /data/scratch/Gau-4123.inp -scrdir=/data/scratch/
 Entering Link 1 = /programs/64bit/g09/g09-gfortran/bin/l1.exe PID=      4124.
  
 Copyright (c) 1988,1990,1992,1993,1995,1998,2003,2009, Gaussian, Inc.
                  All Rights Reserved.
  
 This is part of the Gaussian(R) 09 program.  It is based on
 the Gaussian(R) 03 system (copyright 2003, Gaussian, Inc.),
 the Gaussian(R) 98 system (copyright 1998, Gaussian, Inc.),
 the Gaussian(R) 94 system (copyright 1995, Gaussian, Inc.),
 the Gaussian 92(TM) system (copyright 1992, Gaussian, Inc.),
 the Gaussian 90(TM) system (copyright 1990, Gaussian, Inc.),
 the Gaussian 88(TM) system (copyright 1988, Gaussian, Inc.),
 the Gaussian 86(TM) system (copyright 1986, Carnegie Mellon
 University), and the Gaussian 82(TM) system (copyright 1983,
 Carnegie Mellon University). Gaussian is a federally registered
 trademark of Gaussian, Inc.
  
 This software contains proprietary and confidential information,
 including trade secrets, belonging to Gaussian, Inc.
  
 This software is provided under written license and may be
 used, copied, transmitted, or stored only in accord with that
 written license.
  
 The following legend is applicable only to US Government
 contracts under FAR:
  
                    RESTRICTED RIGHTS LEGEND
  
 Use, reproduction and disclosure by the US Government is
 subject to restrictions as set forth in subparagraphs (a)
 and (c) of the Commercial Computer Software - Restricted
 Rights clause in FAR 52.227-19.
  
 Gaussian, Inc.
 340 Quinnipiac St., Bldg. 40, Wallingford CT 06492
  
  
 ---------------------------------------------------------------
 Warning -- This program may not be used in any manner that
 competes with the business of Gaussian, Inc. or will provide
 assistance to any competitor of Gaussian, Inc.  The licensee
 of this program is prohibited from giving any competitor of
 Gaussian, Inc. access to this program.  By using this program,
 the user acknowledges that Gaussian, Inc. is engaged in the
 business of creating and licensing software in the field of
 computational chemistry and represents and warrants to the
 licensee that it is not a competitor of Gaussian, Inc. and that
 it will not use this program in any manner prohibited above.
 ---------------------------------------------------------------
  

 Cite this work as:
 Gaussian 09, Revision A.02,
 M. J. Frisch, G. W. Trucks, H. B. Schlegel, G. E. Scuseria, 
 M. A. Robb, J. R. Cheeseman, G. Scalmani, V. Barone, B. Mennucci, 
 G. A. Petersson, H. Nakatsuji, M. Caricato, X. Li, H. P. Hratchian, 
 A. F. Izmaylov, J. Bloino, G. Zheng, J. L. Sonnenberg, M. Hada, 
 M. Ehara, K. Toyota, R. Fukuda, J. Hasegawa, M. Ishida, T. Nakajima, 
 Y. Honda, O. Kitao, H. Nakai, T. Vreven, J. A. Montgomery, Jr., 
 J. E. Peralta, F. Ogliaro, M. Bearpark, J. J. Heyd, E. Brothers, 
 K. N. Kudin, V. N. Staroverov, R. Kobayashi, J. Normand, 
 K. Raghavachari, A. Rendell, J. C. Burant, S. S. Iyengar, J. Tomasi, 
 M. Cossi, N. Rega, J. M. Millam, M. Klene, J. E. Knox, J. B. Cross, 
 V. Bakken, C. Adamo, J. Jaramillo, R. Gomperts, R. E. Stratmann, 
 O. Yazyev, A. J. Austin, R. Cammi, C. Pomelli, J. W. Ochterski, 
 R. L. Martin, K. Morokuma, V. G. Zakrzewski, G. A. Voth, 
 P. Salvador, J. J. Dannenberg, S. Dapprich, A. D. Daniels, 
 O. Farkas, J. B. Foresman, J. V. Ortiz, J. Cioslowski, 
 and D. J. Fox, Gaussian, Inc., Wallingford CT, 2009.
 
 ******************************************
 Gaussian 09:  EM64L-G09RevA.02 11-Jun-2009
                28-Jun-2024 
 ******************************************
 %chk=tmp
 ----------------------------
 #p B3LYP/6-31g** opt out=wfn
 ----------------------------
 1/14=-1,18=20,19=15,26=3,38=1/1,3;
 2/9=110,12=2,17=6,18=5,40=1/2;
 3/5=1,6=6,7=101,11=2,16=1,25=1,30=1,71=1,74=-5/1,2,3;
 4//1;
 5/5=2,38=5/2;
 6/7=2,8=2,9=2,10=2,28=1/1;
 7//1,2,3,16;
 1/14=-1,18=20,19=15/3(2);
 2/9=110/2;
 99/6=100/99;
 2/9=110/2;
 3/5=1,6=6,7=101,11=2,16=1,25=1,30=1,71=1,74=-5/1,2,3;
 4/5=5,16=3/1;
 5/5=2,38=5/2;
 7//1,2,3,16;
 1/14=-1,18=20,19=15/3(-5);
 2/9=110/2;
 6/7=2,8=2,9=2,10=2,19=2,28=1/1;
 99/6=100,9=1/99;
 Leave Link    1 at Fri Jun 28 09:26:03 2024, MaxMem=          0 cpu:       0.1
 (Enter /programs/64bit/g09/g09-gfortran/bin/l101.exe)
 -----------------
 hydrogen molecule
 -----------------
 Symbolic Z-matrix:
 Charge =  0 Multiplicity = 1
 h
 h                    1    hh2
       Variables:
  hh2                   1.008                    
 
 NAtoms=      2 NQM=      2 NQMF=      0 NMic=      0 NMicF=      0 NTot=      2.
                    Isotopes and Nuclear Properties:
 (Nuclear quadrupole moments (NQMom) in fm**2, nuclear magnetic moments (NMagM)
  in nuclear magnetons)

  Atom         1           2
 IAtWgt=           1           1
 AtmWgt=   1.0078250   1.0078250
 NucSpn=           1           1
 AtZEff=   0.0000000   0.0000000
 NQMom=    0.0000000   0.0000000
 NMagM=    2.7928460   2.7928460
 Leave Link  101 at Fri Jun 28 09:26:03 2024, MaxMem=   33554432 cpu:       0.0
 (Enter /programs/64bit/g09/g09-gfortran/bin/l103.exe)

 GradGradGradGradGradGradGradGradGradGradGradGradGradGradGradGradGradGrad
 Berny optimization.
 Initialization pass.
                           ----------------------------
                           !    Initial Parameters    !
                           ! (Angstroms and Degrees)  !
 --------------------------                            --------------------------
 ! Name  Definition              Value          Derivative Info.                !
 --------------------------------------------------------------------------------
 ! R1    R(1,2)                  1.008          estimate D2E/DX2                !
 --------------------------------------------------------------------------------
 Trust Radius=3.00D-01 FncErr=1.00D-07 GrdErr=1.00D-06
 Number of steps in this run=  20 maximum allowed number of steps= 100.
 GradGradGradGradGradGradGradGradGradGradGradGradGradGradGradGradGradGrad

 Leave Link  103 at Fri Jun 28 09:26:03 2024, MaxMem=   33554432 cpu:       0.0
 (Enter /programs/64bit/g09/g09-gfortran/bin/l202.exe)
                          Input orientation:                          
 ---------------------------------------------------------------------
 Center     Atomic      Atomic             Coordinates (Angstroms)
 Number     Number       Type             X           Y           Z
 ---------------------------------------------------------------------
      1          1           0        0.000000    0.000000    0.000000
      2          1           0        0.000000    0.000000    1.008000
 ---------------------------------------------------------------------
 Stoichiometry    H2
 Framework group  D*H[C*(H.H)]
 Deg. of freedom     1
 Full point group                 D*H     NOp   8
 Largest Abelian subgroup         D2H     NOp   8
 Largest concise Abelian subgroup C2      NOp   2
                         Standard orientation:                         
 ---------------------------------------------------------------------
 Center     Atomic      Atomic             Coordinates (Angstroms)
 Number     Number       Type             X           Y           Z
 ---------------------------------------------------------------------
      1          1           0        0.000000    0.000000    0.504000
      2          1           0        0.000000    0.000000   -0.504000
 ---------------------------------------------------------------------
 Rotational constants (GHZ):      0.0000000    987.0541625    987.0541625
 Leave Link  202 at Fri Jun 28 09:26:03 2024, MaxMem=   33554432 cpu:       0.0
 (Enter /programs/64bit/g09/g09-gfortran/bin/l301.exe)
 Standard basis: 6-31G(d,p) (6D, 7F)
 Ernie: Thresh=  0.10000D-02 Tol=  0.10000D-05 Strict=F.
 There are     3 symmetry adapted basis functions of AG  symmetry.
 There are     0 symmetry adapted basis functions of B1G symmetry.
 There are     1 symmetry adapted basis functions of B2G symmetry.
 There are     1 symmetry adapted basis functions of B3G symmetry.
 There are     0 symmetry adapted basis functions of AU  symmetry.
 There are     3 symmetry adapted basis functions of B1U symmetry.
 There are     1 symmetry adapted basis functions of B2U symmetry.
 There are     1 symmetry adapted basis functions of B3U symmetry.
 Integral buffers will be    131072 words long.
 Raffenetti 2 integral format.
 Two-electron integral symmetry is turned on.
    10 basis functions,    14 primitive gaussians,    10 cartesian basis functions
     1 alpha electrons        1 beta electrons
       nuclear repulsion energy         0.5249773895 Hartrees.
 IExCor=  402 DFT=T Ex+Corr=B3LYP ExCW=0 ScaHFX=  0.200000
 ScaDFX=  0.800000  0.720000  1.000000  0.810000 ScalE2=  1.000000  1.000000
 IRadAn=      0 IRanWt=     -1 IRanGd=            0 ICorTp=0
 NAtoms=    2 NActive=    2 NUniq=    1 SFac= 3.00D+00 NAtFMM=   80 NAOKFM=F Big=F
 Leave Link  301 at Fri Jun 28 09:26:03 2024, MaxMem=   33554432 cpu:       0.0
 (Enter /programs/64bit/g09/g09-gfortran/bin/l302.exe)
 NPDir=0 NMtPBC=     1 NCelOv=     1 NCel=       1 NClECP=     1 NCelD=      1
         NCelK=      1 NCelE2=     1 NClLst=     1 CellRange=     0.0.
 One-electron integrals computed using PRISM.
 One-electron integral symmetry used in STVInt
 NBasis=    10 RedAO= T  NBF=     3     0     1     1     0     3     1     1
 NBsUse=    10 1.00D-06 NBFU=     3     0     1     1     0     3     1     1
 Precomputing XC quadrature grid using
 IXCGrd= 2 IRadAn=           0 IRanWt=          -1 IRanGd=           0 AccXCQ= 1.00D-10.
 NRdTot=     122 NPtTot=       15168 NUsed=       16061 NTot=       16093
 NSgBfM=    10    10    10    10    10 NAtAll=     2     2.
 Leave Link  302 at Fri Jun 28 09:26:03 2024, MaxMem=   33554432 cpu:       0.0
 (Enter /programs/64bit/g09/g09-gfortran/bin/l303.exe)
 DipDrv:  MaxL=1.
 Leave Link  303 at Fri Jun 28 09:26:04 2024, MaxMem=   33554432 cpu:       0.0
 (Enter /programs/64bit/g09/g09-gfortran/bin/l401.exe)
 Harris functional with IExCor=  402 diagonalized for initial guess.
 ExpMin= 1.61D-01 ExpMax= 1.87D+01 ExpMxC= 1.87D+01 IAcc=1 IRadAn=         1 AccDes= 0.00D+00
 HarFok:  IExCor=  402 AccDes= 0.00D+00 IRadAn=         1 IDoV= 1
 ScaDFX=  1.000000  1.000000  1.000000  1.000000
 FoFCou: FMM=F IPFlag=           0 FMFlag=      100000 FMFlg1=           0
         NFxFlg=           0 DoJE=T BraDBF=F KetDBF=T FulRan=T
         Omega=  0.000000  0.000000  1.000000  0.000000  0.000000 ICntrl=     500 IOpCl=  0
         NMat0=    1 NMatS0=    1 NMatT0=    0 NMatD0=    1 NMtDS0=    0 NMtDT0=    0
         I1Cent=           4 NGrid=           0.
 Petite list used in FoFCou.
 Harris En= -1.14679800296898    
 Initial guess orbital symmetries:
       Occupied  (SGG)
       Virtual   (SGU) (SGG) (SGU) (PIU) (PIU) (SGG) (PIG) (PIG)
                 (SGU)
 The electronic state of the initial guess is 1-SGG.
 Leave Link  401 at Fri Jun 28 09:26:04 2024, MaxMem=   33554432 cpu:       0.1
 (Enter /programs/64bit/g09/g09-gfortran/bin/l502.exe)
 Closed shell SCF:
 Requested convergence on RMS density matrix=1.00D-08 within 128 cycles.
 Requested convergence on MAX density matrix=1.00D-06.
 Requested convergence on             energy=1.00D-06.
 No special actions if energy rises.
 Using DIIS extrapolation, IDIIS=  1040.
 Integral symmetry usage will be decided dynamically.
        16030 words used for storage of precomputed grid.
 Keep R1 ints in memory in canonical form, NReq=894727.
 IEnd=       35823 IEndB=       35823 NGot=    33554432 MDV=    33534144
 LenX=    33534144 LenY=    33533262
 Symmetry not used in FoFDir.
 MinBra= 0 MaxBra= 1 Meth= 1.
 IRaf=       0 NMat=   1 IRICut=       1 DoRegI=T DoRafI=F ISym2E= 0 JSym2E=0.
 Integral accuracy reduced to 1.0D-05 until final iterations.

 Cycle   1  Pass 0  IDiag  1:
 E= -1.14782107828816    
 DIIS: error= 1.46D-02 at cycle   1 NSaved=   1.
 NSaved= 1 IEnMin= 1 EnMin= -1.14782107828816     IErMin= 1 ErrMin= 1.46D-02
 ErrMax= 1.46D-02 EMaxC= 1.00D-01 BMatC= 1.09D-03 BMatP= 1.09D-03
 IDIUse=3 WtCom= 8.54D-01 WtEn= 1.46D-01
 Coeff-Com:  0.100D+01
 Coeff-En:   0.100D+01
 Coeff:      0.100D+01
 Gap=     0.408 Goal=   None    Shift=    0.000
 GapD=    0.408 DampG=2.000 DampE=0.500 DampFc=1.0000 IDamp=-1.
 RMSDP=4.16D-03 MaxDP=1.56D-02              OVMax= 3.13D-02

 Cycle   2  Pass 0  IDiag  1:
 E= -1.14962010693120     Delta-E=       -0.001799028643 Rises=F Damp=F
 DIIS: error= 1.85D-03 at cycle   2 NSaved=   2.
 NSaved= 2 IEnMin= 2 EnMin= -1.14962010693120     IErMin= 2 ErrMin= 1.85D-03
 ErrMax= 1.85D-03 EMaxC= 1.00D-01 BMatC= 2.31D-05 BMatP= 1.09D-03
 IDIUse=3 WtCom= 9.82D-01 WtEn= 1.85D-02
 Coeff-Com:  0.119D+00 0.881D+00
 Coeff-En:   0.000D+00 0.100D+01
 Coeff:      0.117D+00 0.883D+00
 Gap=     0.411 Goal=   None    Shift=    0.000
 RMSDP=4.46D-04 MaxDP=1.56D-03 DE=-1.80D-03 OVMax= 3.54D-03

 Cycle   3  Pass 0  IDiag  1:
 E= -1.14965394779756     Delta-E=       -0.000033840866 Rises=F Damp=F
 DIIS: error= 2.71D-05 at cycle   3 NSaved=   3.
 NSaved= 3 IEnMin= 3 EnMin= -1.14965394779756     IErMin= 3 ErrMin= 2.71D-05
 ErrMax= 2.71D-05 EMaxC= 1.00D-01 BMatC= 4.83D-09 BMatP= 2.31D-05
 IDIUse=1 WtCom= 1.00D+00 WtEn= 0.00D+00
 Coeff-Com: -0.535D-02-0.333D-01 0.104D+01
 Coeff:     -0.535D-02-0.333D-01 0.104D+01
 Gap=     0.410 Goal=   None    Shift=    0.000
 RMSDP=5.57D-06 MaxDP=2.03D-05 DE=-3.38D-05 OVMax= 2.99D-05

 Initial convergence to 1.0D-05 achieved.  Increase integral accuracy.
 Cycle   4  Pass 1  IDiag  1:
 E= -1.14965384334903     Delta-E=        0.000000104449 Rises=F Damp=F
 DIIS: error= 1.34D-07 at cycle   1 NSaved=   1.
 NSaved= 1 IEnMin= 1 EnMin= -1.14965384334903     IErMin= 1 ErrMin= 1.34D-07
 ErrMax= 1.34D-07 EMaxC= 1.00D-01 BMatC= 1.26D-13 BMatP= 1.26D-13
 IDIUse=1 WtCom= 1.00D+00 WtEn= 0.00D+00
 Coeff-Com:  0.100D+01
 Coeff:      0.100D+01
 Gap=     0.410 Goal=   None    Shift=    0.000
 RMSDP=5.57D-06 MaxDP=2.03D-05 DE= 1.04D-07 OVMax= 3.21D-07

 Cycle   5  Pass 1  IDiag  1:
 E= -1.14965384334922     Delta-E=       -0.000000000000 Rises=F Damp=F
 DIIS: error= 1.83D-08 at cycle   2 NSaved=   2.
 NSaved= 2 IEnMin= 2 EnMin= -1.14965384334922     IErMin= 2 ErrMin= 1.83D-08
 ErrMax= 1.83D-08 EMaxC= 1.00D-01 BMatC= 2.53D-15 BMatP= 1.26D-13
 IDIUse=1 WtCom= 1.00D+00 WtEn= 0.00D+00
 Coeff-Com:  0.123D+00 0.877D+00
 Coeff:      0.123D+00 0.877D+00
 Gap=     0.410 Goal=   None    Shift=    0.000
 RMSDP=4.82D-09 MaxDP=1.71D-08 DE=-1.96D-13 OVMax= 3.80D-08

 SCF Done:  E(RB3LYP) =  -1.14965384335     A.U. after    5 cycles
             Convg  =    0.4821D-08             -V/T =  2.1973
 KE= 9.601717704431D-01 PE=-3.164434348574D+00 EE= 5.296313453075D-01
 Leave Link  502 at Fri Jun 28 09:26:04 2024, MaxMem=   33554432 cpu:       0.1
 (Enter /programs/64bit/g09/g09-gfortran/bin/l601.exe)
 Copying SCF densities to generalized density rwf, IOpCl= 0 IROHF=0.

 **********************************************************************

            Population analysis using the SCF density.

 **********************************************************************

 Orbital symmetries:
       Occupied  (SGG)
       Virtual   (SGU) (SGG) (SGU) (PIU) (PIU) (SGG) (PIG) (PIG)
                 (SGU)
 The electronic state is 1-SGG.
 Alpha  occ. eigenvalues --   -0.38461
 Alpha virt. eigenvalues --    0.02586   0.67337   0.87766   1.75539   1.75539
 Alpha virt. eigenvalues --    1.90783   2.34773   2.34773   3.35600
          Condensed to atoms (all electrons):
              1          2
     1  H    0.636492   0.363508
     2  H    0.363508   0.636492
 Mulliken atomic charges:
              1
     1  H   -0.000000
     2  H   -0.000000
 Sum of Mulliken atomic charges =  -0.00000
 Mulliken charges with hydrogens summed into heavy atoms:
              1
 Sum of Mulliken charges with hydrogens summed into heavy atoms =  -0.00000
 Electronic spatial extent (au):  <R**2>=              6.3881
 Charge=             -0.0000 electrons
 Dipole moment (field-independent basis, Debye):
    X=             -0.0000    Y=              0.0000    Z=              0.0000  Tot=              0.0000
 Quadrupole moment (field-independent basis, Debye-Ang):
   XX=             -2.3291   YY=             -2.3291   ZZ=             -1.4937
   XY=             -0.0000   XZ=             -0.0000   YZ=              0.0000
 Traceless Quadrupole moment (field-independent basis, Debye-Ang):
   XX=             -0.2785   YY=             -0.2785   ZZ=              0.5570
   XY=             -0.0000   XZ=             -0.0000   YZ=              0.0000
 Octapole moment (field-independent basis, Debye-Ang**2):
  XXX=             -0.0000  YYY=             -0.0000  ZZZ=              0.0000  XYY=             -0.0000
  XXY=              0.0000  XXZ=             -0.0000  XZZ=             -0.0000  YZZ=              0.0000
  YYZ=              0.0000  XYZ=              0.0000
 Hexadecapole moment (field-independent basis, Debye-Ang**3):
 XXXX=             -2.3421 YYYY=             -2.3421 ZZZZ=             -4.2842 XXXY=             -0.0000
 XXXZ=              0.0000 YYYX=             -0.0000 YYYZ=              0.0000 ZZZX=              0.0000
 ZZZY=              0.0000 XXYY=             -0.7807 XXZZ=             -1.1474 YYZZ=             -1.1474
 XXYZ=              0.0000 YYXZ=              0.0000 ZZXY=             -0.0000
 N-N= 5.249773894742D-01 E-N=-3.164434369854D+00  KE= 9.601717704431D-01
 Symmetry AG   KE= 9.601717704431D-01
 Symmetry B1G  KE= 0.000000000000D+00
 Symmetry B2G  KE= 9.285258031595D-35
 Symmetry B3G  KE= 9.285258031595D-35
 Symmetry AU   KE= 0.000000000000D+00
 Symmetry B1U  KE= 2.059462611763D-34
 Symmetry B2U  KE= 4.105917283118D-35
 Symmetry B3U  KE= 4.105917283118D-35
 No NMR shielding tensors so no spin-rotation constants.
 Leave Link  601 at Fri Jun 28 09:26:04 2024, MaxMem=   33554432 cpu:       0.0
 (Enter /programs/64bit/g09/g09-gfortran/bin/l701.exe)
 Compute integral first derivatives.
 ... and contract with generalized density number  0.
 Leave Link  701 at Fri Jun 28 09:26:04 2024, MaxMem=   33554432 cpu:       0.0
 (Enter /programs/64bit/g09/g09-gfortran/bin/l702.exe)
 L702 exits ... SP integral derivatives will be done elsewhere.
 Leave Link  702 at Fri Jun 28 09:26:04 2024, MaxMem=   33554432 cpu:       0.0
 (Enter /programs/64bit/g09/g09-gfortran/bin/l703.exe)
 Compute integral first derivatives, UseDBF=F ICtDFT=           0.
 Integral derivatives from FoFDir, PRISM(SPDF).
 Calling FoFJK, ICntrl=      2127 FMM=F ISym2X=1 I1Cent= 0 IOpClX= 0 NMat=1 NMatS=1 NMatT=0.
 FoFCou: FMM=F IPFlag=           0 FMFlag=      100000 FMFlg1=         800
         NFxFlg=           0 DoJE=F BraDBF=F KetDBF=F FulRan=T
         Omega=  0.000000  0.000000  1.000000  0.000000  0.000000 ICntrl=    2127 IOpCl=  0
         NMat0=    1 NMatS0=    1 NMatT0=    0 NMatD0=    1 NMtDS0=    0 NMtDT0=    0
         I1Cent=           0 NGrid=           0.
 Petite list used in FoFCou.
 Leave Link  703 at Fri Jun 28 09:26:04 2024, MaxMem=   33554432 cpu:       0.1
 (Enter /programs/64bit/g09/g09-gfortran/bin/l716.exe)
 Dipole        =-4.93038066D-32 0.00000000D+00 0.00000000D+00
 ***** Axes restored to original set *****
 -------------------------------------------------------------------
 Center     Atomic                   Forces (Hartrees/Bohr)
 Number     Number              X              Y              Z
 -------------------------------------------------------------------
      1        1           0.000000000    0.000000000    0.089415811
      2        1          -0.000000000   -0.000000000   -0.089415811
 -------------------------------------------------------------------
 Cartesian Forces:  Max     0.089415811 RMS     0.051624242
 Leave Link  716 at Fri Jun 28 09:26:04 2024, MaxMem=   33554432 cpu:       0.0
 (Enter /programs/64bit/g09/g09-gfortran/bin/l103.exe)

 GradGradGradGradGradGradGradGradGradGradGradGradGradGradGradGradGradGrad
 Berny optimization.
 Internal  Forces:  Max     0.089415811 RMS     0.089415811
 Search for a local minimum.
 Step number   1 out of a maximum of   20
 All quantities printed in internal units (Hartrees-Bohrs-Radians)
 RMS Force = .89416D-01 SwitMx=.10000D-02 MixMth= 1
 Mixed Optimization -- RFO/linear search
 Second derivative matrix not updated -- first step.
 The second derivative matrix:
                          R1
           R1           0.17476
     Eigenvalues ---    0.17476
 RFO step:  Lambda=-3.76422633D-02 EMin= 1.74756953D-01
 Linear search not attempted -- first point.
 Maximum step size (   0.300) exceeded in Quadratic search.
    -- Step size scaled by   0.713
 Iteration  1 RMS(Cart)=  0.14142136 RMS(Int)=  0.10000000
 Iteration  2 RMS(Cart)=  0.07071068 RMS(Int)=  0.00000000
 Iteration  3 RMS(Cart)=  0.00000000 RMS(Int)=  0.00000000
 ClnCor:  largest displacement from symmetrization is 2.22D-16 for atom     2.
 Variable       Old X    -DE/DX   Delta X   Delta X   Delta X     New X
                                 (Linear)    (Quad)   (Total)
    R1        1.90484  -0.08942   0.00000  -0.30000  -0.30000   1.60484
         Item               Value     Threshold  Converged?
 Maximum Force            0.089416     0.000450     NO 
 RMS     Force            0.089416     0.000300     NO 
 Maximum Displacement     0.150000     0.001800     NO 
 RMS     Displacement     0.212132     0.001200     NO 
 Predicted change in Energy=-1.896068D-02
 GradGradGradGradGradGradGradGradGradGradGradGradGradGradGradGradGradGrad

 Leave Link  103 at Fri Jun 28 09:26:04 2024, MaxMem=   33554432 cpu:       0.0
 (Enter /programs/64bit/g09/g09-gfortran/bin/l202.exe)
                          Input orientation:                          
 ---------------------------------------------------------------------
 Center     Atomic      Atomic             Coordinates (Angstroms)
 Number     Number       Type             X           Y           Z
 ---------------------------------------------------------------------
      1          1           0        0.000000    0.000000    0.079377
      2          1           0        0.000000    0.000000    0.928623
 ---------------------------------------------------------------------
 Stoichiometry    H2
 Framework group  D*H[C*(H.H)]
 Deg. of freedom     1
 Full point group                 D*H     NOp   8
 Largest Abelian subgroup         D2H     NOp   8
 Largest concise Abelian subgroup C2      NOp   2
                         Standard orientation:                         
 ---------------------------------------------------------------------
 Center     Atomic      Atomic             Coordinates (Angstroms)
 Number     Number       Type             X           Y           Z
 ---------------------------------------------------------------------
      1          1           0        0.000000    0.000000    0.424623
      2          1           0        0.000000    0.000000   -0.424623
 ---------------------------------------------------------------------
 Rotational constants (GHZ):      0.0000000   1390.5742147   1390.5742147
 Leave Link  202 at Fri Jun 28 09:26:04 2024, MaxMem=   33554432 cpu:       0.0
 (Enter /programs/64bit/g09/g09-gfortran/bin/l301.exe)
 Standard basis: 6-31G(d,p) (6D, 7F)
 Ernie: Thresh=  0.10000D-02 Tol=  0.10000D-05 Strict=F.
 There are     3 symmetry adapted basis functions of AG  symmetry.
 There are     0 symmetry adapted basis functions of B1G symmetry.
 There are     1 symmetry adapted basis functions of B2G symmetry.
 There are     1 symmetry adapted basis functions of B3G symmetry.
 There are     0 symmetry adapted basis functions of AU  symmetry.
 There are     3 symmetry adapted basis functions of B1U symmetry.
 There are     1 symmetry adapted basis functions of B2U symmetry.
 There are     1 symmetry adapted basis functions of B3U symmetry.
 Integral buffers will be    131072 words long.
 Raffenetti 2 integral format.
 Two-electron integral symmetry is turned on.
    10 basis functions,    14 primitive gaussians,    10 cartesian basis functions
     1 alpha electrons        1 beta electrons
       nuclear repulsion energy         0.6231135463 Hartrees.
 IExCor=  402 DFT=T Ex+Corr=B3LYP ExCW=0 ScaHFX=  0.200000
 ScaDFX=  0.800000  0.720000  1.000000  0.810000 ScalE2=  1.000000  1.000000
 IRadAn=      0 IRanWt=     -1 IRanGd=            0 ICorTp=0
 NAtoms=    2 NActive=    2 NUniq=    1 SFac= 3.00D+00 NAtFMM=   80 NAOKFM=F Big=F
 Leave Link  301 at Fri Jun 28 09:26:04 2024, MaxMem=   33554432 cpu:       0.0
 (Enter /programs/64bit/g09/g09-gfortran/bin/l302.exe)
 NPDir=0 NMtPBC=     1 NCelOv=     1 NCel=       1 NClECP=     1 NCelD=      1
         NCelK=      1 NCelE2=     1 NClLst=     1 CellRange=     0.0.
 One-electron integrals computed using PRISM.
 One-electron integral symmetry used in STVInt
 NBasis=    10 RedAO= T  NBF=     3     0     1     1     0     3     1     1
 NBsUse=    10 1.00D-06 NBFU=     3     0     1     1     0     3     1     1
 Precomputing XC quadrature grid using
 IXCGrd= 2 IRadAn=           0 IRanWt=          -1 IRanGd=           0 AccXCQ= 1.00D-10.
 NRdTot=     122 NPtTot=       15168 NUsed=       16061 NTot=       16093
 NSgBfM=    10    10    10    10    10 NAtAll=     2     2.
 Leave Link  302 at Fri Jun 28 09:26:04 2024, MaxMem=   33554432 cpu:       0.1
 (Enter /programs/64bit/g09/g09-gfortran/bin/l303.exe)
 DipDrv:  MaxL=1.
 Leave Link  303 at Fri Jun 28 09:26:04 2024, MaxMem=   33554432 cpu:       0.0
 (Enter /programs/64bit/g09/g09-gfortran/bin/l401.exe)
 Initial guess read from the read-write file.
 B after Tr=     0.000000    0.000000    0.000000
         Rot=    1.000000    0.000000    0.000000    0.000000 Ang=   0.00 deg.
 Guess basis will be translated and rotated to current coordinates.
 Initial guess orbital symmetries:
       Occupied  (SGG)
       Virtual   (SGU) (SGG) (SGU) (PIU) (PIU) (SGG) (PIG) (PIG)
                 (SGU)
 The electronic state of the initial guess is 1-SGG.
 Generating alternative initial guess.
 Harris functional with IExCor=  402 diagonalized for initial guess.
 ExpMin= 1.61D-01 ExpMax= 1.87D+01 ExpMxC= 1.87D+01 IAcc=1 IRadAn=         1 AccDes= 0.00D+00
 HarFok:  IExCor=  402 AccDes= 0.00D+00 IRadAn=         1 IDoV= 1
 ScaDFX=  1.000000  1.000000  1.000000  1.000000
 FoFCou: FMM=F IPFlag=           0 FMFlag=      100000 FMFlg1=           0
         NFxFlg=           0 DoJE=T BraDBF=F KetDBF=T FulRan=T
         Omega=  0.000000  0.000000  1.000000  0.000000  0.000000 ICntrl=     500 IOpCl=  0
         NMat0=    1 NMatS0=    1 NMatT0=    0 NMatD0=    1 NMtDS0=    0 NMtDT0=    0
         I1Cent=           4 NGrid=           0.
 Petite list used in FoFCou.
 Harris En= -1.17356888604879    
 Leave Link  401 at Fri Jun 28 09:26:05 2024, MaxMem=   33554432 cpu:       0.3
 (Enter /programs/64bit/g09/g09-gfortran/bin/l502.exe)
 Closed shell SCF:
 Requested convergence on RMS density matrix=1.00D-08 within 128 cycles.
 Requested convergence on MAX density matrix=1.00D-06.
 Requested convergence on             energy=1.00D-06.
 No special actions if energy rises.
 Using DIIS extrapolation, IDIIS=  1040.
 Integral symmetry usage will be decided dynamically.
        16030 words used for storage of precomputed grid.
 Keep R1 ints in memory in canonical form, NReq=894727.
 IEnd=       35823 IEndB=       35823 NGot=    33554432 MDV=    33534144
 LenX=    33534144 LenY=    33533262
 Symmetry not used in FoFDir.
 MinBra= 0 MaxBra= 1 Meth= 1.
 IRaf=       0 NMat=   1 IRICut=       1 DoRegI=T DoRafI=F ISym2E= 0 JSym2E=0.
 Integral accuracy reduced to 1.0D-05 until final iterations.

 Cycle   1  Pass 0  IDiag  1:
 E= -1.17027066146015    
 DIIS: error= 1.59D-02 at cycle   1 NSaved=   1.
 NSaved= 1 IEnMin= 1 EnMin= -1.17027066146015     IErMin= 1 ErrMin= 1.59D-02
 ErrMax= 1.59D-02 EMaxC= 1.00D-01 BMatC= 1.23D-03 BMatP= 1.23D-03
 IDIUse=3 WtCom= 8.41D-01 WtEn= 1.59D-01
 Coeff-Com:  0.100D+01
 Coeff-En:   0.100D+01
 Coeff:      0.100D+01
 Recover alternate guess density for next cycle.
 RMSDP=8.52D-03 MaxDP=3.31D-02              OVMax= 0.00D+00

 Cycle   2  Pass 0  IDiag  1:
 E= -1.16892068317625     Delta-E=        0.001349978284 Rises=F Damp=F
 Switch densities from cycles 1 and 2 for lowest energy.
 DIIS: error= 1.81D-02 at cycle   2 NSaved=   2.
 NSaved= 2 IEnMin= 1 EnMin= -1.17027066146015     IErMin= 1 ErrMin= 1.59D-02
 ErrMax= 1.81D-02 EMaxC= 1.00D+00 BMatC= 2.06D-03 BMatP= 1.23D-03
 IDIUse=1 WtCom= 1.00D+00 WtEn= 0.00D+00
 Coeff-Com:  0.565D+00 0.435D+00
 Coeff:      0.565D+00 0.435D+00
 Gap=     0.526 Goal=   None    Shift=    0.000
 RMSDP=3.77D-03 MaxDP=1.42D-02 DE= 1.35D-03 OVMax= 2.93D-02

 Cycle   3  Pass 0  IDiag  1:
 E= -1.17234031306972     Delta-E=       -0.003419629893 Rises=F Damp=F
 DIIS: error= 1.05D-04 at cycle   3 NSaved=   3.
 NSaved= 3 IEnMin= 3 EnMin= -1.17234031306972     IErMin= 3 ErrMin= 1.05D-04
 ErrMax= 1.05D-04 EMaxC= 1.00D+00 BMatC= 4.84D-08 BMatP= 1.23D-03
 IDIUse=1 WtCom= 1.00D+00 WtEn= 0.00D+00
 Coeff-Com: -0.234D-01-0.146D-01 0.104D+01
 Coeff:     -0.234D-01-0.146D-01 0.104D+01
 Gap=     0.481 Goal=   None    Shift=    0.000
 RMSDP=2.11D-05 MaxDP=8.26D-05 DE=-3.42D-03 OVMax= 1.39D-04

 Cycle   4  Pass 0  IDiag  1:
 E= -1.17234037662144     Delta-E=       -0.000000063552 Rises=F Damp=F
 DIIS: error= 6.85D-07 at cycle   4 NSaved=   4.
 NSaved= 4 IEnMin= 4 EnMin= -1.17234037662144     IErMin= 4 ErrMin= 6.85D-07
 ErrMax= 6.85D-07 EMaxC= 1.00D+00 BMatC= 2.89D-12 BMatP= 4.84D-08
 IDIUse=1 WtCom= 1.00D+00 WtEn= 0.00D+00
 Coeff-Com:  0.646D-04 0.305D-05-0.272D-02 0.100D+01
 Coeff:      0.646D-04 0.305D-05-0.272D-02 0.100D+01
 Gap=     0.481 Goal=   None    Shift=    0.000
 RMSDP=1.77D-07 MaxDP=6.79D-07 DE=-6.36D-08 OVMax= 1.42D-06

 Initial convergence to 1.0D-05 achieved.  Increase integral accuracy.
 Cycle   5  Pass 1  IDiag  1:
 E= -1.17233983054080     Delta-E=        0.000000546081 Rises=F Damp=F
 DIIS: error= 3.97D-07 at cycle   1 NSaved=   1.
 NSaved= 1 IEnMin= 1 EnMin= -1.17233983054080     IErMin= 1 ErrMin= 3.97D-07
 ErrMax= 3.97D-07 EMaxC= 1.00D+00 BMatC= 6.45D-13 BMatP= 6.45D-13
 IDIUse=1 WtCom= 1.00D+00 WtEn= 0.00D+00
 Coeff-Com:  0.100D+01
 Coeff:      0.100D+01
 Gap=     0.481 Goal=   None    Shift=    0.000
 RMSDP=1.77D-07 MaxDP=6.79D-07 DE= 5.46D-07 OVMax= 4.59D-07

 Cycle   6  Pass 1  IDiag  1:
 E= -1.17233983054146     Delta-E=       -0.000000000001 Rises=F Damp=F
 DIIS: error= 3.77D-08 at cycle   2 NSaved=   2.
 NSaved= 2 IEnMin= 2 EnMin= -1.17233983054146     IErMin= 2 ErrMin= 3.77D-08
 ErrMax= 3.77D-08 EMaxC= 1.00D+00 BMatC= 9.50D-15 BMatP= 6.45D-13
 IDIUse=1 WtCom= 1.00D+00 WtEn= 0.00D+00
 Coeff-Com:  0.860D-01 0.914D+00
 Coeff:      0.860D-01 0.914D+00
 Gap=     0.481 Goal=   None    Shift=    0.000
 RMSDP=1.05D-08 MaxDP=4.00D-08 DE=-6.63D-13 OVMax= 8.54D-08

 Cycle   7  Pass 1  IDiag  1:
 E= -1.17233983054148     Delta-E=       -0.000000000000 Rises=F Damp=F
 DIIS: error= 3.73D-09 at cycle   3 NSaved=   3.
 NSaved= 3 IEnMin= 3 EnMin= -1.17233983054148     IErMin= 3 ErrMin= 3.73D-09
 ErrMax= 3.73D-09 EMaxC= 1.00D+00 BMatC= 6.51D-17 BMatP= 9.50D-15
 IDIUse=1 WtCom= 1.00D+00 WtEn= 0.00D+00
 Coeff-Com: -0.711D-02 0.279D-01 0.979D+00
 Coeff:     -0.711D-02 0.279D-01 0.979D+00
 Gap=     0.481 Goal=   None    Shift=    0.000
 RMSDP=5.69D-10 MaxDP=2.00D-09 DE=-1.51D-14 OVMax= 5.04D-09

 SCF Done:  E(RB3LYP) =  -1.17233983054     A.U. after    7 cycles
             Convg  =    0.5695D-09             -V/T =  2.1102
 KE= 1.056002458148D+00 PE=-3.427244236753D+00 EE= 5.757884017168D-01
 Leave Link  502 at Fri Jun 28 09:26:05 2024, MaxMem=   33554432 cpu:       0.0
 (Enter /programs/64bit/g09/g09-gfortran/bin/l701.exe)
 Compute integral first derivatives.
 ... and contract with generalized density number  0.
 Leave Link  701 at Fri Jun 28 09:26:05 2024, MaxMem=   33554432 cpu:       0.1
 (Enter /programs/64bit/g09/g09-gfortran/bin/l702.exe)
 L702 exits ... SP integral derivatives will be done elsewhere.
 Leave Link  702 at Fri Jun 28 09:26:05 2024, MaxMem=   33554432 cpu:       0.0
 (Enter /programs/64bit/g09/g09-gfortran/bin/l703.exe)
 Compute integral first derivatives, UseDBF=F ICtDFT=           0.
 Integral derivatives from FoFDir, PRISM(SPDF).
 Calling FoFJK, ICntrl=      2127 FMM=F ISym2X=1 I1Cent= 0 IOpClX= 0 NMat=1 NMatS=1 NMatT=0.
 FoFCou: FMM=F IPFlag=           0 FMFlag=      100000 FMFlg1=         800
         NFxFlg=           0 DoJE=F BraDBF=F KetDBF=F FulRan=T
         Omega=  0.000000  0.000000  1.000000  0.000000  0.000000 ICntrl=    2127 IOpCl=  0
         NMat0=    1 NMatS0=    1 NMatT0=    0 NMatD0=    1 NMtDS0=    0 NMtDT0=    0
         I1Cent=           0 NGrid=           0.
 Petite list used in FoFCou.
 Leave Link  703 at Fri Jun 28 09:26:05 2024, MaxMem=   33554432 cpu:       0.1
 (Enter /programs/64bit/g09/g09-gfortran/bin/l716.exe)
 Dipole        =-3.69778549D-32 0.00000000D+00 0.00000000D+00
 ***** Axes restored to original set *****
 -------------------------------------------------------------------
 Center     Atomic                   Forces (Hartrees/Bohr)
 Number     Number              X              Y              Z
 -------------------------------------------------------------------
      1        1           0.000000000    0.000000000    0.055299193
      2        1          -0.000000000   -0.000000000   -0.055299193
 -------------------------------------------------------------------
 Cartesian Forces:  Max     0.055299193 RMS     0.031927004
 Leave Link  716 at Fri Jun 28 09:26:05 2024, MaxMem=   33554432 cpu:       0.0
 (Enter /programs/64bit/g09/g09-gfortran/bin/l103.exe)

 GradGradGradGradGradGradGradGradGradGradGradGradGradGradGradGradGradGrad
 Berny optimization.
 Using GEDIIS/GDIIS optimizer.
 Internal  Forces:  Max     0.055299193 RMS     0.055299193
 Search for a local minimum.
 Step number   2 out of a maximum of   20
 All quantities printed in internal units (Hartrees-Bohrs-Radians)
 RMS Force = .55299D-01 SwitMx=.10000D-02 MixMth= 1
 Mixed Optimization -- RFO/linear search
 Update second derivatives using D2CorX and points    1    2
 DE= -2.27D-02 DEPred=-1.90D-02 R= 1.20D+00
 SS=  1.41D+00  RLast= 3.00D-01 DXNew= 5.0454D-01 9.0000D-01
 Trust test= 1.20D+00 RLast= 3.00D-01 DXMaxT set to 5.05D-01
 The second derivative matrix:
                          R1
           R1           0.11372
 Use linear search instead of GDIIS.
     Eigenvalues ---    0.11372
 RFO step:  Lambda= 0.00000000D+00 EMin= 1.13722059D-01
 Quartic linear search produced a step of  0.72685.
 Iteration  1 RMS(Cart)=  0.14142136 RMS(Int)=  0.01805400
 Iteration  2 RMS(Cart)=  0.01276610 RMS(Int)=  0.00000000
 Iteration  3 RMS(Cart)=  0.00000000 RMS(Int)=  0.00000000
 ClnCor:  largest displacement from symmetrization is 2.22D-16 for atom     2.
 Variable       Old X    -DE/DX   Delta X   Delta X   Delta X     New X
                                 (Linear)    (Quad)   (Total)
    R1        1.60484  -0.05530  -0.21805  -0.00000  -0.21805   1.38679
         Item               Value     Threshold  Converged?
 Maximum Force            0.055299     0.000450     NO 
 RMS     Force            0.055299     0.000300     NO 
 Maximum Displacement     0.109027     0.001800     NO 
 RMS     Displacement     0.154187     0.001200     NO 
 Predicted change in Energy=-9.354608D-03
 GradGradGradGradGradGradGradGradGradGradGradGradGradGradGradGradGradGrad

 Leave Link  103 at Fri Jun 28 09:26:05 2024, MaxMem=   33554432 cpu:       0.0
 (Enter /programs/64bit/g09/g09-gfortran/bin/l202.exe)
                          Input orientation:                          
 ---------------------------------------------------------------------
 Center     Atomic      Atomic             Coordinates (Angstroms)
 Number     Number       Type             X           Y           Z
 ---------------------------------------------------------------------
      1          1           0        0.000000   -0.000000    0.137071
      2          1           0        0.000000   -0.000000    0.870929
 ---------------------------------------------------------------------
 Stoichiometry    H2
 Framework group  D*H[C*(H.H)]
 Deg. of freedom     1
 Full point group                 D*H     NOp   8
 Largest Abelian subgroup         D2H     NOp   8
 Largest concise Abelian subgroup C2      NOp   2
                         Standard orientation:                         
 ---------------------------------------------------------------------
 Center     Atomic      Atomic             Coordinates (Angstroms)
 Number     Number       Type             X           Y           Z
 ---------------------------------------------------------------------
      1          1           0        0.000000    0.000000    0.366929
      2          1           0        0.000000    0.000000   -0.366929
 ---------------------------------------------------------------------
 Rotational constants (GHZ):      0.0000000   1862.2518621   1862.2518621
 Leave Link  202 at Fri Jun 28 09:26:05 2024, MaxMem=   33554432 cpu:       0.0
 (Enter /programs/64bit/g09/g09-gfortran/bin/l301.exe)
 Standard basis: 6-31G(d,p) (6D, 7F)
 Ernie: Thresh=  0.10000D-02 Tol=  0.10000D-05 Strict=F.
 There are     3 symmetry adapted basis functions of AG  symmetry.
 There are     0 symmetry adapted basis functions of B1G symmetry.
 There are     1 symmetry adapted basis functions of B2G symmetry.
 There are     1 symmetry adapted basis functions of B3G symmetry.
 There are     0 symmetry adapted basis functions of AU  symmetry.
 There are     3 symmetry adapted basis functions of B1U symmetry.
 There are     1 symmetry adapted basis functions of B2U symmetry.
 There are     1 symmetry adapted basis functions of B3U symmetry.
 Integral buffers will be    131072 words long.
 Raffenetti 2 integral format.
 Two-electron integral symmetry is turned on.
    10 basis functions,    14 primitive gaussians,    10 cartesian basis functions
     1 alpha electrons        1 beta electrons
       nuclear repulsion energy         0.7210897386 Hartrees.
 IExCor=  402 DFT=T Ex+Corr=B3LYP ExCW=0 ScaHFX=  0.200000
 ScaDFX=  0.800000  0.720000  1.000000  0.810000 ScalE2=  1.000000  1.000000
 IRadAn=      0 IRanWt=     -1 IRanGd=            0 ICorTp=0
 NAtoms=    2 NActive=    2 NUniq=    1 SFac= 3.00D+00 NAtFMM=   80 NAOKFM=F Big=F
 Leave Link  301 at Fri Jun 28 09:26:05 2024, MaxMem=   33554432 cpu:       0.0
 (Enter /programs/64bit/g09/g09-gfortran/bin/l302.exe)
 NPDir=0 NMtPBC=     1 NCelOv=     1 NCel=       1 NClECP=     1 NCelD=      1
         NCelK=      1 NCelE2=     1 NClLst=     1 CellRange=     0.0.
 One-electron integrals computed using PRISM.
 One-electron integral symmetry used in STVInt
 NBasis=    10 RedAO= T  NBF=     3     0     1     1     0     3     1     1
 NBsUse=    10 1.00D-06 NBFU=     3     0     1     1     0     3     1     1
 Precomputing XC quadrature grid using
 IXCGrd= 2 IRadAn=           0 IRanWt=          -1 IRanGd=           0 AccXCQ= 1.00D-10.
 NRdTot=     122 NPtTot=       15168 NUsed=       16061 NTot=       16093
 NSgBfM=    10    10    10    10    10 NAtAll=     2     2.
 Leave Link  302 at Fri Jun 28 09:26:05 2024, MaxMem=   33554432 cpu:       0.0
 (Enter /programs/64bit/g09/g09-gfortran/bin/l303.exe)
 DipDrv:  MaxL=1.
 Leave Link  303 at Fri Jun 28 09:26:05 2024, MaxMem=   33554432 cpu:       0.0
 (Enter /programs/64bit/g09/g09-gfortran/bin/l401.exe)
 Initial guess read from the read-write file.
 B after Tr=     0.000000    0.000000    0.000000
         Rot=    1.000000    0.000000    0.000000    0.000000 Ang=   0.00 deg.
 Guess basis will be translated and rotated to current coordinates.
 Initial guess orbital symmetries:
       Occupied  (SGG)
       Virtual   (SGU) (SGG) (SGU) (PIU) (PIU) (SGG) (PIG) (PIG)
                 (SGU)
 The electronic state of the initial guess is 1-SGG.
 Generating alternative initial guess.
 Harris functional with IExCor=  402 diagonalized for initial guess.
 ExpMin= 1.61D-01 ExpMax= 1.87D+01 ExpMxC= 1.87D+01 IAcc=1 IRadAn=         1 AccDes= 0.00D+00
 HarFok:  IExCor=  402 AccDes= 0.00D+00 IRadAn=         1 IDoV= 1
 ScaDFX=  1.000000  1.000000  1.000000  1.000000
 FoFCou: FMM=F IPFlag=           0 FMFlag=      100000 FMFlg1=           0
         NFxFlg=           0 DoJE=T BraDBF=F KetDBF=T FulRan=T
         Omega=  0.000000  0.000000  1.000000  0.000000  0.000000 ICntrl=     500 IOpCl=  0
         NMat0=    1 NMatS0=    1 NMatT0=    0 NMatD0=    1 NMtDS0=    0 NMtDT0=    0
         I1Cent=           4 NGrid=           0.
 Petite list used in FoFCou.
 Harris En= -1.18554001660474    
 Leave Link  401 at Fri Jun 28 09:26:05 2024, MaxMem=   33554432 cpu:       0.1
 (Enter /programs/64bit/g09/g09-gfortran/bin/l502.exe)
 Closed shell SCF:
 Requested convergence on RMS density matrix=1.00D-08 within 128 cycles.
 Requested convergence on MAX density matrix=1.00D-06.
 Requested convergence on             energy=1.00D-06.
 No special actions if energy rises.
 Using DIIS extrapolation, IDIIS=  1040.
 Integral symmetry usage will be decided dynamically.
        16030 words used for storage of precomputed grid.
 Keep R1 ints in memory in canonical form, NReq=894727.
 IEnd=       35823 IEndB=       35823 NGot=    33554432 MDV=    33534144
 LenX=    33534144 LenY=    33533262
 Symmetry not used in FoFDir.
 MinBra= 0 MaxBra= 1 Meth= 1.
 IRaf=       0 NMat=   1 IRICut=       1 DoRegI=T DoRafI=F ISym2E= 0 JSym2E=0.
 Integral accuracy reduced to 1.0D-05 until final iterations.

 Cycle   1  Pass 0  IDiag  1:
 E= -1.17692494345829    
 DIIS: error= 1.27D-02 at cycle   1 NSaved=   1.
 NSaved= 1 IEnMin= 1 EnMin= -1.17692494345829     IErMin= 1 ErrMin= 1.27D-02
 ErrMax= 1.27D-02 EMaxC= 1.00D-01 BMatC= 9.29D-04 BMatP= 9.29D-04
 IDIUse=3 WtCom= 8.73D-01 WtEn= 1.27D-01
 Coeff-Com:  0.100D+01
 Coeff-En:   0.100D+01
 Coeff:      0.100D+01
 Recover alternate guess density for next cycle.
 RMSDP=8.82D-03 MaxDP=3.54D-02              OVMax= 0.00D+00

 Cycle   2  Pass 0  IDiag  1:
 E= -1.17301190455299     Delta-E=        0.003913038905 Rises=F Damp=F
 Switch densities from cycles 1 and 2 for lowest energy.
 DIIS: error= 2.04D-02 at cycle   2 NSaved=   2.
 NSaved= 2 IEnMin= 1 EnMin= -1.17692494345829     IErMin= 1 ErrMin= 1.27D-02
 ErrMax= 2.04D-02 EMaxC= 1.00D+00 BMatC= 3.35D-03 BMatP= 9.29D-04
 IDIUse=1 WtCom= 1.00D+00 WtEn= 0.00D+00
 Coeff-Com:  0.656D+00 0.344D+00
 Coeff:      0.656D+00 0.344D+00
 Gap=     0.589 Goal=   None    Shift=    0.000
 RMSDP=3.11D-03 MaxDP=1.22D-02 DE= 3.91D-03 OVMax= 2.56D-02

 Cycle   3  Pass 0  IDiag  1:
 E= -1.17848649275755     Delta-E=       -0.005474588205 Rises=F Damp=F
 DIIS: error= 7.35D-05 at cycle   3 NSaved=   3.
 NSaved= 3 IEnMin= 3 EnMin= -1.17848649275755     IErMin= 3 ErrMin= 7.35D-05
 ErrMax= 7.35D-05 EMaxC= 1.00D+00 BMatC= 3.45D-08 BMatP= 9.29D-04
 IDIUse=1 WtCom= 1.00D+00 WtEn= 0.00D+00
 Coeff-Com: -0.302D-01-0.151D-01 0.105D+01
 Coeff:     -0.302D-01-0.151D-01 0.105D+01
 Gap=     0.537 Goal=   None    Shift=    0.000
 RMSDP=1.19D-05 MaxDP=4.61D-05 DE=-5.47D-03 OVMax= 6.11D-05

 Cycle   4  Pass 0  IDiag  1:
 E= -1.17848652339141     Delta-E=       -0.000000030634 Rises=F Damp=F
 DIIS: error= 8.36D-07 at cycle   4 NSaved=   4.
 NSaved= 4 IEnMin= 4 EnMin= -1.17848652339141     IErMin= 4 ErrMin= 8.36D-07
 ErrMax= 8.36D-07 EMaxC= 1.00D+00 BMatC= 3.39D-12 BMatP= 3.45D-08
 IDIUse=1 WtCom= 1.00D+00 WtEn= 0.00D+00
 Coeff-Com:  0.558D-04-0.367D-05-0.560D-02 0.101D+01
 Coeff:      0.558D-04-0.367D-05-0.560D-02 0.101D+01
 Gap=     0.537 Goal=   None    Shift=    0.000
 RMSDP=1.40D-07 MaxDP=5.25D-07 DE=-3.06D-08 OVMax= 1.26D-06

 Initial convergence to 1.0D-05 achieved.  Increase integral accuracy.
 Cycle   5  Pass 1  IDiag  1:
 E= -1.17848407026473     Delta-E=        0.000002453127 Rises=F Damp=F
 DIIS: error= 1.08D-06 at cycle   1 NSaved=   1.
 NSaved= 1 IEnMin= 1 EnMin= -1.17848407026473     IErMin= 1 ErrMin= 1.08D-06
 ErrMax= 1.08D-06 EMaxC= 1.00D+00 BMatC= 8.33D-12 BMatP= 8.33D-12
 IDIUse=1 WtCom= 1.00D+00 WtEn= 0.00D+00
 Coeff-Com:  0.100D+01
 Coeff:      0.100D+01
 Gap=     0.537 Goal=   None    Shift=    0.000
 RMSDP=1.40D-07 MaxDP=5.25D-07 DE= 2.45D-06 OVMax= 2.74D-06

 Cycle   6  Pass 1  IDiag  1:
 E= -1.17848407027734     Delta-E=       -0.000000000013 Rises=F Damp=F
 DIIS: error= 2.35D-07 at cycle   2 NSaved=   2.
 NSaved= 2 IEnMin= 2 EnMin= -1.17848407027734     IErMin= 2 ErrMin= 2.35D-07
 ErrMax= 2.35D-07 EMaxC= 1.00D+00 BMatC= 3.29D-13 BMatP= 8.33D-12
 IDIUse=1 WtCom= 1.00D+00 WtEn= 0.00D+00
 Coeff-Com:  0.165D+00 0.835D+00
 Coeff:      0.165D+00 0.835D+00
 Gap=     0.537 Goal=   None    Shift=    0.000
 RMSDP=4.98D-08 MaxDP=1.93D-07 DE=-1.26D-11 OVMax= 4.36D-07

 Cycle   7  Pass 1  IDiag  1:
 E= -1.17848407027784     Delta-E=       -0.000000000000 Rises=F Damp=F
 DIIS: error= 1.74D-09 at cycle   3 NSaved=   3.
 NSaved= 3 IEnMin= 3 EnMin= -1.17848407027784     IErMin= 3 ErrMin= 1.74D-09
 ErrMax= 1.74D-09 EMaxC= 1.00D+00 BMatC= 1.25D-17 BMatP= 3.29D-13
 IDIUse=1 WtCom= 1.00D+00 WtEn= 0.00D+00
 Coeff-Com: -0.814D-02-0.453D-01 0.105D+01
 Coeff:     -0.814D-02-0.453D-01 0.105D+01
 Gap=     0.537 Goal=   None    Shift=    0.000
 RMSDP=1.15D-10 MaxDP=2.65D-10 DE=-4.92D-13 OVMax= 1.01D-09

 SCF Done:  E(RB3LYP) =  -1.17848407028     A.U. after    7 cycles
             Convg  =    0.1153D-09             -V/T =  2.0239
 KE= 1.150968982040D+00 PE=-3.665559972716D+00 EE= 6.150171818358D-01
 Leave Link  502 at Fri Jun 28 09:26:06 2024, MaxMem=   33554432 cpu:       0.1
 (Enter /programs/64bit/g09/g09-gfortran/bin/l701.exe)
 Compute integral first derivatives.
 ... and contract with generalized density number  0.
 Leave Link  701 at Fri Jun 28 09:26:06 2024, MaxMem=   33554432 cpu:       0.0
 (Enter /programs/64bit/g09/g09-gfortran/bin/l702.exe)
 L702 exits ... SP integral derivatives will be done elsewhere.
 Leave Link  702 at Fri Jun 28 09:26:06 2024, MaxMem=   33554432 cpu:       0.0
 (Enter /programs/64bit/g09/g09-gfortran/bin/l703.exe)
 Compute integral first derivatives, UseDBF=F ICtDFT=           0.
 Integral derivatives from FoFDir, PRISM(SPDF).
 Calling FoFJK, ICntrl=      2127 FMM=F ISym2X=1 I1Cent= 0 IOpClX= 0 NMat=1 NMatS=1 NMatT=0.
 FoFCou: FMM=F IPFlag=           0 FMFlag=      100000 FMFlg1=         800
         NFxFlg=           0 DoJE=F BraDBF=F KetDBF=F FulRan=T
         Omega=  0.000000  0.000000  1.000000  0.000000  0.000000 ICntrl=    2127 IOpCl=  0
         NMat0=    1 NMatS0=    1 NMatT0=    0 NMatD0=    1 NMtDS0=    0 NMtDT0=    0
         I1Cent=           0 NGrid=           0.
 Petite list used in FoFCou.
 Leave Link  703 at Fri Jun 28 09:26:06 2024, MaxMem=   33554432 cpu:       0.1
 (Enter /programs/64bit/g09/g09-gfortran/bin/l716.exe)
 Dipole        =-7.39557099D-32 0.00000000D+00 0.00000000D+00
 ***** Axes restored to original set *****
 -------------------------------------------------------------------
 Center     Atomic                   Forces (Hartrees/Bohr)
 Number     Number              X              Y              Z
 -------------------------------------------------------------------
      1        1           0.000000000    0.000000000   -0.006608873
      2        1          -0.000000000   -0.000000000    0.006608873
 -------------------------------------------------------------------
 Cartesian Forces:  Max     0.006608873 RMS     0.003815635
 Leave Link  716 at Fri Jun 28 09:26:06 2024, MaxMem=   33554432 cpu:       0.0
 (Enter /programs/64bit/g09/g09-gfortran/bin/l103.exe)

 GradGradGradGradGradGradGradGradGradGradGradGradGradGradGradGradGradGrad
 Berny optimization.
 Using GEDIIS/GDIIS optimizer.
 Internal  Forces:  Max     0.006608873 RMS     0.006608873
 Search for a local minimum.
 Step number   3 out of a maximum of   20
 All quantities printed in internal units (Hartrees-Bohrs-Radians)
 RMS Force = .66089D-02 SwitMx=.10000D-02 MixMth= 1
 Mixed Optimization -- RFO/linear search
 Update second derivatives using D2CorX and points    2    3
 DE= -6.14D-03 DEPred=-9.35D-03 R= 6.57D-01
 SS=  1.41D+00  RLast= 2.18D-01 DXNew= 8.4853D-01 6.5416D-01
 Trust test= 6.57D-01 RLast= 2.18D-01 DXMaxT set to 6.54D-01
 The second derivative matrix:
                          R1
           R1           0.28391
 Use linear search instead of GDIIS.
     Eigenvalues ---    0.28391
 RFO step:  Lambda= 0.00000000D+00 EMin= 2.83911633D-01
 Quartic linear search produced a step of -0.07847.
 Iteration  1 RMS(Cart)=  0.01209973 RMS(Int)=  0.00000000
 Iteration  2 RMS(Cart)=  0.00000000 RMS(Int)=  0.00000000
 ClnCor:  largest displacement from symmetrization is 5.24D-19 for atom     1.
 Variable       Old X    -DE/DX   Delta X   Delta X   Delta X     New X
                                 (Linear)    (Quad)   (Total)
    R1        1.38679   0.00661   0.01711   0.00000   0.01711   1.40390
         Item               Value     Threshold  Converged?
 Maximum Force            0.006609     0.000450     NO 
 RMS     Force            0.006609     0.000300     NO 
 Maximum Displacement     0.008556     0.001800     NO 
 RMS     Displacement     0.012100     0.001200     NO 
 Predicted change in Energy=-7.152276D-05
 GradGradGradGradGradGradGradGradGradGradGradGradGradGradGradGradGradGrad

 Leave Link  103 at Fri Jun 28 09:26:06 2024, MaxMem=   33554432 cpu:       0.0
 (Enter /programs/64bit/g09/g09-gfortran/bin/l202.exe)
                          Input orientation:                          
 ---------------------------------------------------------------------
 Center     Atomic      Atomic             Coordinates (Angstroms)
 Number     Number       Type             X           Y           Z
 ---------------------------------------------------------------------
      1          1           0        0.000000   -0.000000    0.132544
      2          1           0        0.000000   -0.000000    0.875456
 ---------------------------------------------------------------------
 Stoichiometry    H2
 Framework group  D*H[C*(H.H)]
 Deg. of freedom     1
 Full point group                 D*H     NOp   8
 Largest Abelian subgroup         D2H     NOp   8
 Largest concise Abelian subgroup C2      NOp   2
                         Standard orientation:                         
 ---------------------------------------------------------------------
 Center     Atomic      Atomic             Coordinates (Angstroms)
 Number     Number       Type             X           Y           Z
 ---------------------------------------------------------------------
      1          1           0        0.000000    0.000000    0.371456
      2          1           0        0.000000    0.000000   -0.371456
 ---------------------------------------------------------------------
 Rotational constants (GHZ):      0.0000000   1817.1320066   1817.1320066
 Leave Link  202 at Fri Jun 28 09:26:06 2024, MaxMem=   33554432 cpu:       0.0
 (Enter /programs/64bit/g09/g09-gfortran/bin/l301.exe)
 Standard basis: 6-31G(d,p) (6D, 7F)
 Ernie: Thresh=  0.10000D-02 Tol=  0.10000D-05 Strict=F.
 There are     3 symmetry adapted basis functions of AG  symmetry.
 There are     0 symmetry adapted basis functions of B1G symmetry.
 There are     1 symmetry adapted basis functions of B2G symmetry.
 There are     1 symmetry adapted basis functions of B3G symmetry.
 There are     0 symmetry adapted basis functions of AU  symmetry.
 There are     3 symmetry adapted basis functions of B1U symmetry.
 There are     1 symmetry adapted basis functions of B2U symmetry.
 There are     1 symmetry adapted basis functions of B3U symmetry.
 Integral buffers will be    131072 words long.
 Raffenetti 2 integral format.
 Two-electron integral symmetry is turned on.
    10 basis functions,    14 primitive gaussians,    10 cartesian basis functions
     1 alpha electrons        1 beta electrons
       nuclear repulsion energy         0.7123006584 Hartrees.
 IExCor=  402 DFT=T Ex+Corr=B3LYP ExCW=0 ScaHFX=  0.200000
 ScaDFX=  0.800000  0.720000  1.000000  0.810000 ScalE2=  1.000000  1.000000
 IRadAn=      0 IRanWt=     -1 IRanGd=            0 ICorTp=0
 NAtoms=    2 NActive=    2 NUniq=    1 SFac= 3.00D+00 NAtFMM=   80 NAOKFM=F Big=F
 Leave Link  301 at Fri Jun 28 09:26:06 2024, MaxMem=   33554432 cpu:       0.0
 (Enter /programs/64bit/g09/g09-gfortran/bin/l302.exe)
 NPDir=0 NMtPBC=     1 NCelOv=     1 NCel=       1 NClECP=     1 NCelD=      1
         NCelK=      1 NCelE2=     1 NClLst=     1 CellRange=     0.0.
 One-electron integrals computed using PRISM.
 One-electron integral symmetry used in STVInt
 NBasis=    10 RedAO= T  NBF=     3     0     1     1     0     3     1     1
 NBsUse=    10 1.00D-06 NBFU=     3     0     1     1     0     3     1     1
 Precomputing XC quadrature grid using
 IXCGrd= 2 IRadAn=           0 IRanWt=          -1 IRanGd=           0 AccXCQ= 1.00D-10.
 NRdTot=     122 NPtTot=       15168 NUsed=       16061 NTot=       16093
 NSgBfM=    10    10    10    10    10 NAtAll=     2     2.
 Leave Link  302 at Fri Jun 28 09:26:06 2024, MaxMem=   33554432 cpu:       0.1
 (Enter /programs/64bit/g09/g09-gfortran/bin/l303.exe)
 DipDrv:  MaxL=1.
 Leave Link  303 at Fri Jun 28 09:26:06 2024, MaxMem=   33554432 cpu:       0.0
 (Enter /programs/64bit/g09/g09-gfortran/bin/l401.exe)
 Initial guess read from the read-write file.
 B after Tr=     0.000000    0.000000    0.000000
         Rot=    1.000000    0.000000    0.000000    0.000000 Ang=   0.00 deg.
 Guess basis will be translated and rotated to current coordinates.
 Initial guess orbital symmetries:
       Occupied  (SGG)
       Virtual   (SGU) (SGG) (SGU) (PIU) (PIU) (SGG) (PIG) (PIG)
                 (SGU)
 The electronic state of the initial guess is 1-SGG.
 Leave Link  401 at Fri Jun 28 09:26:06 2024, MaxMem=   33554432 cpu:       0.1
 (Enter /programs/64bit/g09/g09-gfortran/bin/l502.exe)
 Closed shell SCF:
 Requested convergence on RMS density matrix=1.00D-08 within 128 cycles.
 Requested convergence on MAX density matrix=1.00D-06.
 Requested convergence on             energy=1.00D-06.
 No special actions if energy rises.
 Using DIIS extrapolation, IDIIS=  1040.
 Integral symmetry usage will be decided dynamically.
        16030 words used for storage of precomputed grid.
 Keep R1 ints in memory in canonical form, NReq=894727.
 IEnd=       35823 IEndB=       35823 NGot=    33554432 MDV=    33534144
 LenX=    33534144 LenY=    33533262
 Symmetry not used in FoFDir.
 MinBra= 0 MaxBra= 1 Meth= 1.
 IRaf=       0 NMat=   1 IRICut=       1 DoRegI=T DoRafI=F ISym2E= 0 JSym2E=0.

 Cycle   1  Pass 1  IDiag  1:
 E= -1.17852844658025    
 DIIS: error= 1.06D-03 at cycle   1 NSaved=   1.
 NSaved= 1 IEnMin= 1 EnMin= -1.17852844658025     IErMin= 1 ErrMin= 1.06D-03
 ErrMax= 1.06D-03 EMaxC= 1.00D-01 BMatC= 6.46D-06 BMatP= 6.46D-06
 IDIUse=3 WtCom= 9.89D-01 WtEn= 1.06D-02
 Coeff-Com:  0.100D+01
 Coeff-En:   0.100D+01
 Coeff:      0.100D+01
 Gap=     0.532 Goal=   None    Shift=    0.000
 GapD=    0.532 DampG=2.000 DampE=1.000 DampFc=2.0000 IDamp=-1.
 RMSDP=3.05D-04 MaxDP=1.21D-03              OVMax= 2.52D-03

 Cycle   2  Pass 1  IDiag  1:
 E= -1.17853894765236     Delta-E=       -0.000010501072 Rises=F Damp=F
 DIIS: error= 2.18D-04 at cycle   2 NSaved=   2.
 NSaved= 2 IEnMin= 2 EnMin= -1.17853894765236     IErMin= 2 ErrMin= 2.18D-04
 ErrMax= 2.18D-04 EMaxC= 1.00D-01 BMatC= 2.62D-07 BMatP= 6.46D-06
 IDIUse=3 WtCom= 9.98D-01 WtEn= 2.18D-03
 Coeff-Com:  0.158D+00 0.842D+00
 Coeff-En:   0.000D+00 0.100D+01
 Coeff:      0.158D+00 0.842D+00
 Gap=     0.532 Goal=   None    Shift=    0.000
 RMSDP=4.32D-05 MaxDP=1.66D-04 DE=-1.05D-05 OVMax= 3.81D-04

 Cycle   3  Pass 1  IDiag  1:
 E= -1.17853932636538     Delta-E=       -0.000000378713 Rises=F Damp=F
 DIIS: error= 3.47D-06 at cycle   3 NSaved=   3.
 NSaved= 3 IEnMin= 3 EnMin= -1.17853932636538     IErMin= 3 ErrMin= 3.47D-06
 ErrMax= 3.47D-06 EMaxC= 1.00D-01 BMatC= 7.42D-11 BMatP= 2.62D-07
 IDIUse=1 WtCom= 1.00D+00 WtEn= 0.00D+00
 Coeff-Com: -0.807D-02-0.375D-01 0.105D+01
 Coeff:     -0.807D-02-0.375D-01 0.105D+01
 Gap=     0.532 Goal=   None    Shift=    0.000
 RMSDP=5.68D-07 MaxDP=2.21D-06 DE=-3.79D-07 OVMax= 2.99D-06

 Cycle   4  Pass 1  IDiag  1:
 E= -1.17853932643336     Delta-E=       -0.000000000068 Rises=F Damp=F
 DIIS: error= 5.10D-10 at cycle   4 NSaved=   4.
 NSaved= 4 IEnMin= 4 EnMin= -1.17853932643336     IErMin= 4 ErrMin= 5.10D-10
 ErrMax= 5.10D-10 EMaxC= 1.00D-01 BMatC= 1.57D-18 BMatP= 7.42D-11
 IDIUse=1 WtCom= 1.00D+00 WtEn= 0.00D+00
 Coeff-Com: -0.271D-06 0.120D-05 0.254D-04 0.100D+01
 Coeff:     -0.271D-06 0.120D-05 0.254D-04 0.100D+01
 Gap=     0.532 Goal=   None    Shift=    0.000
 RMSDP=1.10D-10 MaxDP=4.24D-10 DE=-6.80D-11 OVMax= 9.57D-10

 SCF Done:  E(RB3LYP) =  -1.17853932643     A.U. after    4 cycles
             Convg  =    0.1096D-09             -V/T =  2.0315
 KE= 1.142603600422D+00 PE=-3.645183468009D+00 EE= 6.117398827039D-01
 Leave Link  502 at Fri Jun 28 09:26:06 2024, MaxMem=   33554432 cpu:       0.1
 (Enter /programs/64bit/g09/g09-gfortran/bin/l701.exe)
 Compute integral first derivatives.
 ... and contract with generalized density number  0.
 Leave Link  701 at Fri Jun 28 09:26:06 2024, MaxMem=   33554432 cpu:       0.1
 (Enter /programs/64bit/g09/g09-gfortran/bin/l702.exe)
 L702 exits ... SP integral derivatives will be done elsewhere.
 Leave Link  702 at Fri Jun 28 09:26:06 2024, MaxMem=   33554432 cpu:       0.0
 (Enter /programs/64bit/g09/g09-gfortran/bin/l703.exe)
 Compute integral first derivatives, UseDBF=F ICtDFT=           0.
 Integral derivatives from FoFDir, PRISM(SPDF).
 Calling FoFJK, ICntrl=      2127 FMM=F ISym2X=1 I1Cent= 0 IOpClX= 0 NMat=1 NMatS=1 NMatT=0.
 FoFCou: FMM=F IPFlag=           0 FMFlag=      100000 FMFlg1=         800
         NFxFlg=           0 DoJE=F BraDBF=F KetDBF=F FulRan=T
         Omega=  0.000000  0.000000  1.000000  0.000000  0.000000 ICntrl=    2127 IOpCl=  0
         NMat0=    1 NMatS0=    1 NMatT0=    0 NMatD0=    1 NMtDS0=    0 NMtDT0=    0
         I1Cent=           0 NGrid=           0.
 Petite list used in FoFCou.
 Leave Link  703 at Fri Jun 28 09:26:06 2024, MaxMem=   33554432 cpu:       0.1
 (Enter /programs/64bit/g09/g09-gfortran/bin/l716.exe)
 Dipole        = 8.62816615D-32 0.00000000D+00 0.00000000D+00
 ***** Axes restored to original set *****
 -------------------------------------------------------------------
 Center     Atomic                   Forces (Hartrees/Bohr)
 Number     Number              X              Y              Z
 -------------------------------------------------------------------
      1        1           0.000000000    0.000000000    0.000085848
      2        1          -0.000000000   -0.000000000   -0.000085848
 -------------------------------------------------------------------
 Cartesian Forces:  Max     0.000085848 RMS     0.000049564
 Leave Link  716 at Fri Jun 28 09:26:06 2024, MaxMem=   33554432 cpu:       0.0
 (Enter /programs/64bit/g09/g09-gfortran/bin/l103.exe)

 GradGradGradGradGradGradGradGradGradGradGradGradGradGradGradGradGradGrad
 Berny optimization.
 Using GEDIIS/GDIIS optimizer.
 Internal  Forces:  Max     0.000085848 RMS     0.000085848
 Search for a local minimum.
 Step number   4 out of a maximum of   20
 All quantities printed in internal units (Hartrees-Bohrs-Radians)
 RMS Force = .85848D-04 SwitMx=.10000D-02 MixMth= 2
 Mixed Optimization -- En-DIIS/RFO-DIIS
 Update second derivatives using D2CorX and points    3    4
 DE= -5.53D-05 DEPred=-7.15D-05 R= 7.73D-01
 SS=  1.41D+00  RLast= 1.71D-02 DXNew= 1.1002D+00 5.1335D-02
 Trust test= 7.73D-01 RLast= 1.71D-02 DXMaxT set to 6.54D-01
 The second derivative matrix:
                          R1
           R1           0.39124
 Use linear search instead of GDIIS.
     Eigenvalues ---    0.39124
 RFO step:  Lambda= 0.00000000D+00 EMin= 3.91238614D-01
 Quartic linear search produced a step of -0.01320.
 Iteration  1 RMS(Cart)=  0.00015971 RMS(Int)=  0.00000000
 Iteration  2 RMS(Cart)=  0.00000000 RMS(Int)=  0.00000000
 ClnCor:  largest displacement from symmetrization is 5.55D-17 for atom     1.
 Variable       Old X    -DE/DX   Delta X   Delta X   Delta X     New X
                                 (Linear)    (Quad)   (Total)
    R1        1.40390  -0.00009  -0.00023   0.00000  -0.00023   1.40368
         Item               Value     Threshold  Converged?
 Maximum Force            0.000086     0.000450     YES
 RMS     Force            0.000086     0.000300     YES
 Maximum Displacement     0.000113     0.001800     YES
 RMS     Displacement     0.000160     0.001200     YES
 Predicted change in Energy=-9.410545D-09
 Optimization completed.
    -- Stationary point found.
                           ----------------------------
                           !   Optimized Parameters   !
                           ! (Angstroms and Degrees)  !
 --------------------------                            --------------------------
 ! Name  Definition              Value          Derivative Info.                !
 --------------------------------------------------------------------------------
 ! R1    R(1,2)                  0.7429         -DE/DX =   -0.0001              !
 --------------------------------------------------------------------------------
 GradGradGradGradGradGradGradGradGradGradGradGradGradGradGradGradGradGrad

 Largest change from initial coordinates is atom    1       0.133 Angstoms.
 Leave Link  103 at Fri Jun 28 09:26:06 2024, MaxMem=   33554432 cpu:       0.0
 (Enter /programs/64bit/g09/g09-gfortran/bin/l202.exe)
                          Input orientation:                          
 ---------------------------------------------------------------------
 Center     Atomic      Atomic             Coordinates (Angstroms)
 Number     Number       Type             X           Y           Z
 ---------------------------------------------------------------------
      1          1           0        0.000000   -0.000000    0.132544
      2          1           0        0.000000   -0.000000    0.875456
 ---------------------------------------------------------------------
 Stoichiometry    H2
 Framework group  D*H[C*(H.H)]
 Deg. of freedom     1
 Full point group                 D*H     NOp   8
 Largest Abelian subgroup         D2H     NOp   8
 Largest concise Abelian subgroup C2      NOp   2
                         Standard orientation:                         
 ---------------------------------------------------------------------
 Center     Atomic      Atomic             Coordinates (Angstroms)
 Number     Number       Type             X           Y           Z
 ---------------------------------------------------------------------
      1          1           0        0.000000    0.000000    0.371456
      2          1           0        0.000000    0.000000   -0.371456
 ---------------------------------------------------------------------
 Rotational constants (GHZ):      0.0000000   1817.1320066   1817.1320066
 Leave Link  202 at Fri Jun 28 09:26:06 2024, MaxMem=   33554432 cpu:       0.0
 (Enter /programs/64bit/g09/g09-gfortran/bin/l601.exe)
 Copying SCF densities to generalized density rwf, IOpCl= 0 IROHF=0.

 **********************************************************************

            Population analysis using the SCF density.

 **********************************************************************

 Orbital symmetries:
       Occupied  (SGG)
       Virtual   (SGU) (SGG) (SGU) (PIU) (PIU) (SGG) (PIG) (PIG)
                 (SGU)
 The electronic state is 1-SGG.
 Alpha  occ. eigenvalues --   -0.43155
 Alpha virt. eigenvalues --    0.10093   0.57705   1.03599   1.67472   1.67472
 Alpha virt. eigenvalues --    2.37865   2.61553   2.61553   4.15228
          Condensed to atoms (all electrons):
              1          2
     1  H    0.589038   0.410962
     2  H    0.410962   0.589038
 Mulliken atomic charges:
              1
     1  H    0.000000
     2  H    0.000000
 Sum of Mulliken atomic charges =   0.00000
 Mulliken charges with hydrogens summed into heavy atoms:
              1
 Sum of Mulliken charges with hydrogens summed into heavy atoms =   0.00000
 Electronic spatial extent (au):  <R**2>=              5.1237
 Charge=              0.0000 electrons
 Dipole moment (field-independent basis, Debye):
    X=              0.0000    Y=              0.0000    Z=              0.0000  Tot=              0.0000
 Quadrupole moment (field-independent basis, Debye-Ang):
   XX=             -2.0292   YY=             -2.0292   ZZ=             -1.5076
   XY=             -0.0000   XZ=             -0.0000   YZ=              0.0000
 Traceless Quadrupole moment (field-independent basis, Debye-Ang):
   XX=             -0.1739   YY=             -0.1739   ZZ=              0.3477
   XY=             -0.0000   XZ=             -0.0000   YZ=              0.0000
 Octapole moment (field-independent basis, Debye-Ang**2):
  XXX=             -0.0000  YYY=             -0.0000  ZZZ=             -0.0000  XYY=             -0.0000
  XXY=              0.0000  XXZ=              0.0000  XZZ=             -0.0000  YZZ=              0.0000
  YYZ=              0.0000  XYZ=              0.0000
 Hexadecapole moment (field-independent basis, Debye-Ang**3):
 XXXX=             -1.8761 YYYY=             -1.8761 ZZZZ=             -2.7685 XXXY=             -0.0000
 XXXZ=              0.0000 YYYX=             -0.0000 YYYZ=              0.0000 ZZZX=              0.0000
 ZZZY=              0.0000 XXYY=             -0.6254 XXZZ=             -0.7889 YYZZ=             -0.7889
 XXYZ=              0.0000 YYXZ=              0.0000 ZZXY=             -0.0000
 N-N= 7.123006584494D-01 E-N=-3.645183467339D+00  KE= 1.142603600422D+00
 Symmetry AG   KE= 1.142603600422D+00
 Symmetry B1G  KE= 0.000000000000D+00
 Symmetry B2G  KE= 2.250360795578D-34
 Symmetry B3G  KE= 2.250360795578D-34
 Symmetry AU   KE= 0.000000000000D+00
 Symmetry B1U  KE= 8.597631165743D-32
 Symmetry B2U  KE= 6.479233980072D-35
 Symmetry B3U  KE= 6.479233980072D-35
 No NMR shielding tensors so no spin-rotation constants.
 Leave Link  601 at Fri Jun 28 09:26:07 2024, MaxMem=   33554432 cpu:       0.0
 (Enter /programs/64bit/g09/g09-gfortran/bin/l9999.exe)
 B after Tr=     0.000000    0.000000    0.952422
         Rot=    0.000000   -0.000000    1.000000   -0.000000 Ang= 180.00 deg.
 Final structure in terms of initial Z-matrix:
 H
 H,1,hh2
      Variables:
 hh2=0.7429127
 1\1\GINC-MOLMOD\FOpt\RB3LYP\6-31G(d,p)\H2\OSPITE\28-Jun-2024\0\\#p B3L
 YP/6-31g** opt out=wfn\\hydrogen molecule\\0,1\H,0.,0.,0.1325436477\H,
 0.,0.,0.8754563523\\Version=EM64L-G09RevA.02\State=1-SGG\HF=-1.1785393
 \RMSD=1.096e-10\RMSF=4.956e-05\Dipole=0.,0.,0.\Quadrupole=-0.1292676,-
 0.1292676,0.2585353,0.,0.,0.\PG=D*H [C*(H1.H1)]\\@

 Writing a WFN file to molhydr.wfn.


 ONE OF THE BENEFITS OF A COLLEGE EDUCATION
 IS TO SHOW THE BOY ITS LITTLE AVAIL 
                                    EMERSON IN 'CULTURE'
 Job cpu time:  0 days  0 hours  0 minutes  3.2 seconds.
 File lengths (MBytes):  RWF=      5 Int=      0 D2E=      0 Chk=      1 Scr=      1
 Normal termination of Gaussian 09 at Fri Jun 28 09:26:07 2024.
