 hydrogen molecule                                       
GAUSSIAN              1 MOL ORBITALS     14 PRIMITIVES        2 NUCLEI
  H    1    (CENTRE  1)  -0.00000000  0.00000000  0.70195078  CHARGE =  1.0
  H    2    (CENTRE  2)   0.00000000  0.00000000 -0.70195078  CHARGE =  1.0
CENTRE ASSIGNMENTS    1  1  1  1  1  1  1  2  2  2  2  2  2  2
TYPE ASSIGNMENTS      1  1  1  1  2  3  4  1  1  1  1  2  3  4
EXPONENTS  0.1873114D+02 0.2825394D+01 0.6401217D+00 0.1612778D+00 0.1100000D+01
EXPONENTS  0.1100000D+01 0.1100000D+01 0.1873114D+02 0.2825394D+01 0.6401217D+00
EXPONENTS  0.1612778D+00 0.1100000D+01 0.1100000D+01 0.1100000D+01
MO    1     MO 0.0        OCC NO =    2.0000000  ORB. ENERGY =   -0.431552
  0.69797102D-01  0.11838910D+00  0.13478180D+00  0.49065353D-01  0.00000000D+00
  0.00000000D+00 -0.24669477D-01  0.69797102D-01  0.11838910D+00  0.13478180D+00
  0.49065353D-01  0.00000000D+00  0.00000000D+00  0.24669477D-01
END DATA
 THE  HF ENERGY =     -1.178539326433 THE VIRIAL(-V/T)=   2.03145074
