 Entering Gaussian System, Link 0=g09
 Input=c2h6.com
 Output=c2h6.log
 Initial command:
 /programs/64bit/g09/g09-gfortran/bin/l1.exe /data/scratch/Gau-4219.inp -scrdir=/data/scratch/
 Entering Link 1 = /programs/64bit/g09/g09-gfortran/bin/l1.exe PID=      4220.
  
 Copyright (c) 1988,1990,1992,1993,1995,1998,2003,2009, Gaussian, Inc.
                  All Rights Reserved.
  
 This is part of the Gaussian(R) 09 program.  It is based on
 the Gaussian(R) 03 system (copyright 2003, Gaussian, Inc.),
 the Gaussian(R) 98 system (copyright 1998, Gaussian, Inc.),
 the Gaussian(R) 94 system (copyright 1995, Gaussian, Inc.),
 the Gaussian 92(TM) system (copyright 1992, Gaussian, Inc.),
 the Gaussian 90(TM) system (copyright 1990, Gaussian, Inc.),
 the Gaussian 88(TM) system (copyright 1988, Gaussian, Inc.),
 the Gaussian 86(TM) system (copyright 1986, Carnegie Mellon
 University), and the Gaussian 82(TM) system (copyright 1983,
 Carnegie Mellon University). Gaussian is a federally registered
 trademark of Gaussian, Inc.
  
 This software contains proprietary and confidential information,
 including trade secrets, belonging to Gaussian, Inc.
  
 This software is provided under written license and may be
 used, copied, transmitted, or stored only in accord with that
 written license.
  
 The following legend is applicable only to US Government
 contracts under FAR:
  
                    RESTRICTED RIGHTS LEGEND
  
 Use, reproduction and disclosure by the US Government is
 subject to restrictions as set forth in subparagraphs (a)
 and (c) of the Commercial Computer Software - Restricted
 Rights clause in FAR 52.227-19.
  
 Gaussian, Inc.
 340 Quinnipiac St., Bldg. 40, Wallingford CT 06492
  
  
 ---------------------------------------------------------------
 Warning -- This program may not be used in any manner that
 competes with the business of Gaussian, Inc. or will provide
 assistance to any competitor of Gaussian, Inc.  The licensee
 of this program is prohibited from giving any competitor of
 Gaussian, Inc. access to this program.  By using this program,
 the user acknowledges that Gaussian, Inc. is engaged in the
 business of creating and licensing software in the field of
 computational chemistry and represents and warrants to the
 licensee that it is not a competitor of Gaussian, Inc. and that
 it will not use this program in any manner prohibited above.
 ---------------------------------------------------------------
  

 Cite this work as:
 Gaussian 09, Revision A.02,
 M. J. Frisch, G. W. Trucks, H. B. Schlegel, G. E. Scuseria, 
 M. A. Robb, J. R. Cheeseman, G. Scalmani, V. Barone, B. Mennucci, 
 G. A. Petersson, H. Nakatsuji, M. Caricato, X. Li, H. P. Hratchian, 
 A. F. Izmaylov, J. Bloino, G. Zheng, J. L. Sonnenberg, M. Hada, 
 M. Ehara, K. Toyota, R. Fukuda, J. Hasegawa, M. Ishida, T. Nakajima, 
 Y. Honda, O. Kitao, H. Nakai, T. Vreven, J. A. Montgomery, Jr., 
 J. E. Peralta, F. Ogliaro, M. Bearpark, J. J. Heyd, E. Brothers, 
 K. N. Kudin, V. N. Staroverov, R. Kobayashi, J. Normand, 
 K. Raghavachari, A. Rendell, J. C. Burant, S. S. Iyengar, J. Tomasi, 
 M. Cossi, N. Rega, J. M. Millam, M. Klene, J. E. Knox, J. B. Cross, 
 V. Bakken, C. Adamo, J. Jaramillo, R. Gomperts, R. E. Stratmann, 
 O. Yazyev, A. J. Austin, R. Cammi, C. Pomelli, J. W. Ochterski, 
 R. L. Martin, K. Morokuma, V. G. Zakrzewski, G. A. Voth, 
 P. Salvador, J. J. Dannenberg, S. Dapprich, A. D. Daniels, 
 O. Farkas, J. B. Foresman, J. V. Ortiz, J. Cioslowski, 
 and D. J. Fox, Gaussian, Inc., Wallingford CT, 2009.
 
 ******************************************
 Gaussian 09:  EM64L-G09RevA.02 11-Jun-2009
                28-Jun-2024 
 ******************************************
 %chk=tmp
 --------------------------------
 #p B3LYP/6-31+g(d,p) opt out=wfn
 --------------------------------
 1/14=-1,18=20,19=15,26=3,38=1/1,3;
 2/9=110,12=2,17=6,18=5,40=1/2;
 3/5=1,6=6,7=111,11=2,16=1,25=1,30=1,71=1,74=-5/1,2,3;
 4//1;
 5/5=2,38=5/2;
 6/7=2,8=2,9=2,10=2,28=1/1;
 7//1,2,3,16;
 1/14=-1,18=20,19=15/3(2);
 2/9=110/2;
 99/6=100/99;
 2/9=110/2;
 3/5=1,6=6,7=111,11=2,16=1,25=1,30=1,71=1,74=-5/1,2,3;
 4/5=5,16=3/1;
 5/5=2,38=5/2;
 7//1,2,3,16;
 1/14=-1,18=20,19=15/3(-5);
 2/9=110/2;
 6/7=2,8=2,9=2,10=2,19=2,28=1/1;
 99/6=100,9=1/99;
 Leave Link    1 at Fri Jun 28 11:32:09 2024, MaxMem=          0 cpu:       0.3
 (Enter /programs/64bit/g09/g09-gfortran/bin/l101.exe)
 -----
 etano
 -----
 Symbolic Z-matrix:
 Charge =  0 Multiplicity = 1
 C1
 C2                   1    d1
 H3                   1    d2       2    a1
 H4                   1    d3       2    a2       3    t1       0
 H5                   1    d4       2    a3       3    t2       0
 H6                   2    d5       1    a4       3    t3       0
 H7                   2    d6       1    a5       6    t4       0
 H8                   2    d7       1    a6       6    t5       0
       Variables:
  d1                    1.4                      
  d2                    1.1                      
  d3                    1.1                      
  d4                    1.1                      
  d5                    1.1                      
  d6                    1.1                      
  d7                    1.1                      
  a1                  109.                       
  a2                  109.                       
  a3                  109.                       
  a4                  109.                       
  a5                  109.                       
  a6                  109.                       
  t1                  120.                       
  t2                 -120.                       
  t3                   60.                       
  t4                  120.                       
  t5                 -120.                       
 
 NAtoms=      8 NQM=      8 NQMF=      0 NMic=      0 NMicF=      0 NTot=      8.
                    Isotopes and Nuclear Properties:
 (Nuclear quadrupole moments (NQMom) in fm**2, nuclear magnetic moments (NMagM)
  in nuclear magnetons)

  Atom         1           2           3           4           5           6           7           8
 IAtWgt=          12          12           1           1           1           1           1           1
 AtmWgt=  12.0000000  12.0000000   1.0078250   1.0078250   1.0078250   1.0078250   1.0078250   1.0078250
 NucSpn=           0           0           1           1           1           1           1           1
 AtZEff=   0.0000000   0.0000000   0.0000000   0.0000000   0.0000000   0.0000000   0.0000000   0.0000000
 NQMom=    0.0000000   0.0000000   0.0000000   0.0000000   0.0000000   0.0000000   0.0000000   0.0000000
 NMagM=    0.0000000   0.0000000   2.7928460   2.7928460   2.7928460   2.7928460   2.7928460   2.7928460
 Leave Link  101 at Fri Jun 28 11:32:09 2024, MaxMem=   33554432 cpu:       0.1
 (Enter /programs/64bit/g09/g09-gfortran/bin/l103.exe)

 GradGradGradGradGradGradGradGradGradGradGradGradGradGradGradGradGradGrad
 Berny optimization.
 Initialization pass.
                           ----------------------------
                           !    Initial Parameters    !
                           ! (Angstroms and Degrees)  !
 --------------------------                            --------------------------
 ! Name  Definition              Value          Derivative Info.                !
 --------------------------------------------------------------------------------
 ! R1    R(1,2)                  1.4            estimate D2E/DX2                !
 ! R2    R(1,3)                  1.1            estimate D2E/DX2                !
 ! R3    R(1,4)                  1.1            estimate D2E/DX2                !
 ! R4    R(1,5)                  1.1            estimate D2E/DX2                !
 ! R5    R(2,6)                  1.1            estimate D2E/DX2                !
 ! R6    R(2,7)                  1.1            estimate D2E/DX2                !
 ! R7    R(2,8)                  1.1            estimate D2E/DX2                !
 ! A1    A(2,1,3)              109.0            estimate D2E/DX2                !
 ! A2    A(2,1,4)              109.0            estimate D2E/DX2                !
 ! A3    A(2,1,5)              109.0            estimate D2E/DX2                !
 ! A4    A(3,1,4)              109.9383         estimate D2E/DX2                !
 ! A5    A(3,1,5)              109.9383         estimate D2E/DX2                !
 ! A6    A(4,1,5)              109.9383         estimate D2E/DX2                !
 ! A7    A(1,2,6)              109.0            estimate D2E/DX2                !
 ! A8    A(1,2,7)              109.0            estimate D2E/DX2                !
 ! A9    A(1,2,8)              109.0            estimate D2E/DX2                !
 ! A10   A(6,2,7)              109.9383         estimate D2E/DX2                !
 ! A11   A(6,2,8)              109.9383         estimate D2E/DX2                !
 ! A12   A(7,2,8)              109.9383         estimate D2E/DX2                !
 ! D1    D(3,1,2,6)             60.0            estimate D2E/DX2                !
 ! D2    D(3,1,2,7)            180.0            estimate D2E/DX2                !
 ! D3    D(3,1,2,8)            -60.0            estimate D2E/DX2                !
 ! D4    D(4,1,2,6)            180.0            estimate D2E/DX2                !
 ! D5    D(4,1,2,7)            -60.0            estimate D2E/DX2                !
 ! D6    D(4,1,2,8)             60.0            estimate D2E/DX2                !
 ! D7    D(5,1,2,6)            -60.0            estimate D2E/DX2                !
 ! D8    D(5,1,2,7)             60.0            estimate D2E/DX2                !
 ! D9    D(5,1,2,8)            180.0            estimate D2E/DX2                !
 --------------------------------------------------------------------------------
 Trust Radius=3.00D-01 FncErr=1.00D-07 GrdErr=1.00D-06
 Number of steps in this run=  38 maximum allowed number of steps= 100.
 GradGradGradGradGradGradGradGradGradGradGradGradGradGradGradGradGradGrad

 Leave Link  103 at Fri Jun 28 11:32:09 2024, MaxMem=   33554432 cpu:       0.0
 (Enter /programs/64bit/g09/g09-gfortran/bin/l202.exe)
                          Input orientation:                          
 ---------------------------------------------------------------------
 Center     Atomic      Atomic             Coordinates (Angstroms)
 Number     Number       Type             X           Y           Z
 ---------------------------------------------------------------------
      1          6           0        0.000000    0.000000    0.000000
      2          6           0        0.000000    0.000000    1.400000
      3          1           0        1.040070    0.000000   -0.358125
      4          1           0       -0.520035   -0.900727   -0.358125
      5          1           0       -0.520035    0.900727   -0.358125
      6          1           0        0.520035    0.900727    1.758125
      7          1           0       -1.040070    0.000000    1.758125
      8          1           0        0.520035   -0.900727    1.758125
 ---------------------------------------------------------------------
                    Distance matrix (angstroms):
                    1          2          3          4          5
     1  C    0.000000
     2  C    1.400000   0.000000
     3  H    1.100000   2.042731   0.000000
     4  H    1.100000   2.042731   1.801455   0.000000
     5  H    1.100000   2.042731   1.801455   1.801455   0.000000
     6  H    2.042731   1.100000   2.358020   2.967406   2.358020
     7  H    2.042731   1.100000   2.967406   2.358020   2.358020
     8  H    2.042731   1.100000   2.358020   2.358020   2.967406
                    6          7          8
     6  H    0.000000
     7  H    1.801455   0.000000
     8  H    1.801455   1.801455   0.000000
 Stoichiometry    C2H6
 Framework group  D3D[C3(C.C),3SGD(H2)]
 Deg. of freedom     3
 Full point group                 D3D     NOp  12
 Largest Abelian subgroup         C2H     NOp   4
 Largest concise Abelian subgroup C2H     NOp   4
                         Standard orientation:                         
 ---------------------------------------------------------------------
 Center     Atomic      Atomic             Coordinates (Angstroms)
 Number     Number       Type             X           Y           Z
 ---------------------------------------------------------------------
      1          6           0        0.000000    0.000000    0.700000
      2          6           0       -0.000000   -0.000000   -0.700000
      3          1           0        0.000000    1.040070    1.058125
      4          1           0       -0.900727   -0.520035    1.058125
      5          1           0        0.900727   -0.520035    1.058125
      6          1           0        0.900727    0.520035   -1.058125
      7          1           0       -0.000000   -1.040070   -1.058125
      8          1           0       -0.900727    0.520035   -1.058125
 ---------------------------------------------------------------------
 Rotational constants (GHZ):     77.2601063     23.1814905     23.1814905
 Leave Link  202 at Fri Jun 28 11:32:09 2024, MaxMem=   33554432 cpu:       0.1
 (Enter /programs/64bit/g09/g09-gfortran/bin/l301.exe)
 Standard basis: 6-31+G(d,p) (6D, 7F)
 Ernie: Thresh=  0.10000D-02 Tol=  0.10000D-05 Strict=F.
 There are    23 symmetry adapted basis functions of AG  symmetry.
 There are    11 symmetry adapted basis functions of BG  symmetry.
 There are    11 symmetry adapted basis functions of AU  symmetry.
 There are    23 symmetry adapted basis functions of BU  symmetry.
 Integral buffers will be    131072 words long.
 Raffenetti 2 integral format.
 Two-electron integral symmetry is turned on.
    68 basis functions,   106 primitive gaussians,    68 cartesian basis functions
     9 alpha electrons        9 beta electrons
       nuclear repulsion energy        43.8958616296 Hartrees.
 IExCor=  402 DFT=T Ex+Corr=B3LYP ExCW=0 ScaHFX=  0.200000
 ScaDFX=  0.800000  0.720000  1.000000  0.810000 ScalE2=  1.000000  1.000000
 IRadAn=      0 IRanWt=     -1 IRanGd=            0 ICorTp=0
 NAtoms=    8 NActive=    8 NUniq=    2 SFac= 3.00D+00 NAtFMM=   80 NAOKFM=F Big=F
 Leave Link  301 at Fri Jun 28 11:32:09 2024, MaxMem=   33554432 cpu:       0.1
 (Enter /programs/64bit/g09/g09-gfortran/bin/l302.exe)
 NPDir=0 NMtPBC=     1 NCelOv=     1 NCel=       1 NClECP=     1 NCelD=      1
         NCelK=      1 NCelE2=     1 NClLst=     1 CellRange=     0.0.
 One-electron integrals computed using PRISM.
 One-electron integral symmetry used in STVInt
 NBasis=    68 RedAO= T  NBF=    23    11    11    23
 NBsUse=    68 1.00D-06 NBFU=    23    11    11    23
 Precomputing XC quadrature grid using
 IXCGrd= 2 IRadAn=           0 IRanWt=          -1 IRanGd=           0 AccXCQ= 1.00D-10.
 NRdTot=     510 NPtTot=       65100 NUsed=       68787 NTot=       68819
 NSgBfM=    68    68    68    68    68 NAtAll=     8     8.
 Leave Link  302 at Fri Jun 28 11:32:09 2024, MaxMem=   33554432 cpu:       0.2
 (Enter /programs/64bit/g09/g09-gfortran/bin/l303.exe)
 DipDrv:  MaxL=1.
 Leave Link  303 at Fri Jun 28 11:32:09 2024, MaxMem=   33554432 cpu:       0.0
 (Enter /programs/64bit/g09/g09-gfortran/bin/l401.exe)
 Harris functional with IExCor=  402 diagonalized for initial guess.
 ExpMin= 4.38D-02 ExpMax= 3.05D+03 ExpMxC= 4.57D+02 IAcc=2 IRadAn=         0 AccDes= 0.00D+00
 HarFok:  IExCor=  402 AccDes= 0.00D+00 IRadAn=         0 IDoV= 1
 ScaDFX=  1.000000  1.000000  1.000000  1.000000
 FoFCou: FMM=F IPFlag=           0 FMFlag=      100000 FMFlg1=           0
         NFxFlg=           0 DoJE=T BraDBF=F KetDBF=T FulRan=T
         Omega=  0.000000  0.000000  1.000000  0.000000  0.000000 ICntrl=     500 IOpCl=  0
         NMat0=    1 NMatS0=    1 NMatT0=    0 NMatD0=    1 NMtDS0=    0 NMtDT0=    0
         I1Cent=           4 NGrid=           0.
 Petite list used in FoFCou.
 Harris En= -79.8964971364875    
 Initial guess orbital symmetries:
       Occupied  (A1G) (A2U) (A1G) (A2U) (EU) (EU) (A1G) (EG) (EG)
       Virtual   (A1G) (A2U) (EU) (EU) (A1G) (EG) (EG) (EG) (EG)
                 (A2U) (EU) (EU) (A2U) (A1G) (A2U) (A1G) (EG) (EG)
                 (EU) (EU) (A2U) (EU) (EU) (EG) (EG) (A1G) (A2U)
                 (A1G) (EU) (EU) (A2U) (EG) (EG) (A1G) (EG) (EG)
                 (A1U) (A2G) (EU) (EU) (EU) (EU) (A2U) (EG) (EG)
                 (A1G) (A2U) (EU) (EU) (EG) (EG) (A1G) (A2U) (EG)
                 (EG) (EU) (EU) (A1G) (A2U)
 The electronic state of the initial guess is 1-A1G.
 Leave Link  401 at Fri Jun 28 11:32:10 2024, MaxMem=   33554432 cpu:       0.3
 (Enter /programs/64bit/g09/g09-gfortran/bin/l502.exe)
 Closed shell SCF:
 Requested convergence on RMS density matrix=1.00D-08 within 128 cycles.
 Requested convergence on MAX density matrix=1.00D-06.
 Requested convergence on             energy=1.00D-06.
 No special actions if energy rises.
 Using DIIS extrapolation, IDIIS=  1040.
 Integral symmetry usage will be decided dynamically.
        68702 words used for storage of precomputed grid.
 Keep R1 ints in memory in canonical form, NReq=3743695.
 IEnd=      102160 IEndB=      102160 NGot=    33554432 MDV=    30720546
 LenX=    30720546 LenY=    30715481
 Symmetry not used in FoFDir.
 MinBra= 0 MaxBra= 2 Meth= 1.
 IRaf=       0 NMat=   1 IRICut=       1 DoRegI=T DoRafI=F ISym2E= 0 JSym2E=0.

 Cycle   1  Pass 1  IDiag  1:
 E= -79.6659071004805    
 DIIS: error= 5.92D-02 at cycle   1 NSaved=   1.
 NSaved= 1 IEnMin= 1 EnMin= -79.6659071004805     IErMin= 1 ErrMin= 5.92D-02
 ErrMax= 5.92D-02 EMaxC= 1.00D-01 BMatC= 1.45D-01 BMatP= 1.45D-01
 IDIUse=3 WtCom= 4.08D-01 WtEn= 5.92D-01
 Coeff-Com:  0.100D+01
 Coeff-En:   0.100D+01
 Coeff:      0.100D+01
 Gap=     0.261 Goal=   None    Shift=    0.000
 GapD=    0.261 DampG=1.000 DampE=0.500 DampFc=0.5000 IDamp=-1.
 Damping current iteration by 5.00D-01
 RMSDP=1.11D-02 MaxDP=1.56D-01              OVMax= 2.31D-01

 Cycle   2  Pass 1  IDiag  1:
 E= -79.7289423931145     Delta-E=       -0.063035292634 Rises=F Damp=T
 DIIS: error= 1.11D-02 at cycle   2 NSaved=   2.
 NSaved= 2 IEnMin= 2 EnMin= -79.7289423931145     IErMin= 2 ErrMin= 1.11D-02
 ErrMax= 1.11D-02 EMaxC= 1.00D-01 BMatC= 5.93D-03 BMatP= 1.45D-01
 IDIUse=3 WtCom= 8.89D-01 WtEn= 1.11D-01
 Coeff-Com:  0.128D+00 0.872D+00
 Coeff-En:   0.227D+00 0.773D+00
 Coeff:      0.139D+00 0.861D+00
 Gap=     0.341 Goal=   None    Shift=    0.000
 RMSDP=1.65D-03 MaxDP=1.49D-02 DE=-6.30D-02 OVMax= 1.48D-01

 Cycle   3  Pass 1  IDiag  1:
 E= -79.8265181732596     Delta-E=       -0.097575780145 Rises=F Damp=F
 DIIS: error= 1.70D-03 at cycle   3 NSaved=   3.
 NSaved= 3 IEnMin= 3 EnMin= -79.8265181732596     IErMin= 3 ErrMin= 1.70D-03
 ErrMax= 1.70D-03 EMaxC= 1.00D-01 BMatC= 9.99D-05 BMatP= 5.93D-03
 IDIUse=3 WtCom= 9.83D-01 WtEn= 1.70D-02
 Coeff-Com:  0.502D-02 0.566D-01 0.938D+00
 Coeff-En:   0.000D+00 0.000D+00 0.100D+01
 Coeff:      0.493D-02 0.556D-01 0.939D+00
 Gap=     0.350 Goal=   None    Shift=    0.000
 RMSDP=1.76D-04 MaxDP=2.10D-03 DE=-9.76D-02 OVMax= 3.86D-03

 Cycle   4  Pass 1  IDiag  1:
 E= -79.8265992527613     Delta-E=       -0.000081079502 Rises=F Damp=F
 DIIS: error= 4.92D-04 at cycle   4 NSaved=   4.
 NSaved= 4 IEnMin= 4 EnMin= -79.8265992527613     IErMin= 4 ErrMin= 4.92D-04
 ErrMax= 4.92D-04 EMaxC= 1.00D-01 BMatC= 8.89D-06 BMatP= 9.99D-05
 IDIUse=3 WtCom= 9.95D-01 WtEn= 4.92D-03
 Coeff-Com: -0.862D-03-0.793D-02 0.216D+00 0.793D+00
 Coeff-En:   0.000D+00 0.000D+00 0.000D+00 0.100D+01
 Coeff:     -0.857D-03-0.789D-02 0.215D+00 0.794D+00
 Gap=     0.350 Goal=   None    Shift=    0.000
 RMSDP=4.23D-05 MaxDP=4.48D-04 DE=-8.11D-05 OVMax= 1.13D-03

 Cycle   5  Pass 1  IDiag  1:
 E= -79.8266073847504     Delta-E=       -0.000008131989 Rises=F Damp=F
 DIIS: error= 3.47D-05 at cycle   5 NSaved=   5.
 NSaved= 5 IEnMin= 5 EnMin= -79.8266073847504     IErMin= 5 ErrMin= 3.47D-05
 ErrMax= 3.47D-05 EMaxC= 1.00D-01 BMatC= 5.71D-08 BMatP= 8.89D-06
 IDIUse=1 WtCom= 1.00D+00 WtEn= 0.00D+00
 Coeff-Com:  0.512D-03-0.620D-03-0.474D-03 0.171D-01 0.984D+00
 Coeff:      0.512D-03-0.620D-03-0.474D-03 0.171D-01 0.984D+00
 Gap=     0.350 Goal=   None    Shift=    0.000
 RMSDP=3.54D-06 MaxDP=4.41D-05 DE=-8.13D-06 OVMax= 1.13D-04

 Cycle   6  Pass 1  IDiag  1:
 E= -79.8266074531550     Delta-E=       -0.000000068405 Rises=F Damp=F
 DIIS: error= 1.09D-06 at cycle   6 NSaved=   6.
 NSaved= 6 IEnMin= 6 EnMin= -79.8266074531550     IErMin= 6 ErrMin= 1.09D-06
 ErrMax= 1.09D-06 EMaxC= 1.00D-01 BMatC= 4.89D-11 BMatP= 5.71D-08
 IDIUse=1 WtCom= 1.00D+00 WtEn= 0.00D+00
 Coeff-Com: -0.122D-04 0.219D-05-0.108D-02-0.368D-02 0.187D-02 0.100D+01
 Coeff:     -0.122D-04 0.219D-05-0.108D-02-0.368D-02 0.187D-02 0.100D+01
 Gap=     0.350 Goal=   None    Shift=    0.000
 RMSDP=2.39D-07 MaxDP=2.40D-06 DE=-6.84D-08 OVMax= 3.67D-06

 Cycle   7  Pass 1  IDiag  1:
 E= -79.8266074532509     Delta-E=       -0.000000000096 Rises=F Damp=F
 DIIS: error= 9.03D-08 at cycle   7 NSaved=   7.
 NSaved= 7 IEnMin= 7 EnMin= -79.8266074532509     IErMin= 7 ErrMin= 9.03D-08
 ErrMax= 9.03D-08 EMaxC= 1.00D-01 BMatC= 2.39D-13 BMatP= 4.89D-11
 IDIUse=1 WtCom= 1.00D+00 WtEn= 0.00D+00
 Coeff-Com: -0.832D-06 0.107D-05 0.425D-04-0.340D-04-0.279D-02-0.253D-01
 Coeff-Com:  0.103D+01
 Coeff:     -0.832D-06 0.107D-05 0.425D-04-0.340D-04-0.279D-02-0.253D-01
 Coeff:      0.103D+01
 Gap=     0.350 Goal=   None    Shift=    0.000
 RMSDP=1.24D-08 MaxDP=1.58D-07 DE=-9.59D-11 OVMax= 3.33D-07

 Cycle   8  Pass 1  IDiag  1:
 E= -79.8266074532514     Delta-E=       -0.000000000000 Rises=F Damp=F
 DIIS: error= 2.86D-09 at cycle   8 NSaved=   8.
 NSaved= 8 IEnMin= 8 EnMin= -79.8266074532514     IErMin= 8 ErrMin= 2.86D-09
 ErrMax= 2.86D-09 EMaxC= 1.00D-01 BMatC= 4.03D-16 BMatP= 2.39D-13
 IDIUse=1 WtCom= 1.00D+00 WtEn= 0.00D+00
 Coeff-Com:  0.827D-07-0.149D-07 0.294D-05 0.762D-05 0.705D-04-0.354D-02
 Coeff-Com: -0.806D-02 0.101D+01
 Coeff:      0.827D-07-0.149D-07 0.294D-05 0.762D-05 0.705D-04-0.354D-02
 Coeff:     -0.806D-02 0.101D+01
 Gap=     0.350 Goal=   None    Shift=    0.000
 RMSDP=6.08D-10 MaxDP=4.82D-09 DE=-4.83D-13 OVMax= 1.22D-08

 SCF Done:  E(RB3LYP) =  -79.8266074533     A.U. after    8 cycles
             Convg  =    0.6076D-09             -V/T =  2.0076
 KE= 7.922548945531D+01 PE=-2.716818644783D+02 EE= 6.873390594020D+01
 Leave Link  502 at Fri Jun 28 11:32:11 2024, MaxMem=   33554432 cpu:       1.4
 (Enter /programs/64bit/g09/g09-gfortran/bin/l601.exe)
 Copying SCF densities to generalized density rwf, IOpCl= 0 IROHF=0.

 **********************************************************************

            Population analysis using the SCF density.

 **********************************************************************

 Orbital symmetries:
       Occupied  (A1G) (A2U) (A1G) (A2U) (EU) (EU) (A1G) (EG) (EG)
       Virtual   (A1G) (A2U) (EU) (EU) (A1G) (EG) (EG) (A2U) (EG)
                 (EG) (EU) (EU) (A2U) (A1G) (A2U) (A1G) (EU) (EU)
                 (EG) (EG) (A2U) (EU) (EU) (EG) (EG) (A1G) (A2U)
                 (A1G) (EU) (EU) (A2U) (EG) (EG) (A1U) (A2G) (EG)
                 (EG) (A1G) (EU) (EU) (EU) (EU) (A2U) (EG) (EG)
                 (A1G) (A2U) (EU) (EU) (EG) (EG) (A1G) (A2U) (EG)
                 (EG) (EU) (EU) (A1G) (A2U)
 The electronic state is 1-A1G.
 Alpha  occ. eigenvalues --  -10.16900 -10.16849  -0.78453  -0.59846  -0.45504
 Alpha  occ. eigenvalues --   -0.45504  -0.37617  -0.33294  -0.33294
 Alpha virt. eigenvalues --    0.01715   0.03568   0.04836   0.04836   0.07723
 Alpha virt. eigenvalues --    0.09113   0.09113   0.14488   0.18689   0.18689
 Alpha virt. eigenvalues --    0.20494   0.20494   0.28281   0.28914   0.35218
 Alpha virt. eigenvalues --    0.57643   0.65960   0.65960   0.65970   0.65970
 Alpha virt. eigenvalues --    0.76733   0.89706   0.89706   0.98069   0.98069
 Alpha virt. eigenvalues --    1.01447   1.10290   1.11676   1.31982   1.31982
 Alpha virt. eigenvalues --    1.48668   1.74773   1.74773   2.03798   2.04013
 Alpha virt. eigenvalues --    2.04239   2.04239   2.06498   2.09442   2.09442
 Alpha virt. eigenvalues --    2.33034   2.33034   2.36212   2.52101   2.52101
 Alpha virt. eigenvalues --    2.67850   2.75723   2.80854   2.80854   2.94702
 Alpha virt. eigenvalues --    2.94702   3.22521   3.25870   3.35248   3.35248
 Alpha virt. eigenvalues --    3.55816   3.55816   4.36511   4.62096
          Condensed to atoms (all electrons):
              1          2          3          4          5          6
     1  C    5.113829   0.238864   0.413671   0.413671   0.413671  -0.058899
     2  C    0.238864   5.113829  -0.058899  -0.058899  -0.058899   0.413671
     3  H    0.413671  -0.058899   0.571848  -0.028561  -0.028561  -0.007946
     4  H    0.413671  -0.058899  -0.028561   0.571848  -0.028561   0.007391
     5  H    0.413671  -0.058899  -0.028561  -0.028561   0.571848  -0.007946
     6  H   -0.058899   0.413671  -0.007946   0.007391  -0.007946   0.571848
     7  H   -0.058899   0.413671   0.007391  -0.007946  -0.007946  -0.028561
     8  H   -0.058899   0.413671  -0.007946  -0.007946   0.007391  -0.028561
              7          8
     1  C   -0.058899  -0.058899
     2  C    0.413671   0.413671
     3  H    0.007391  -0.007946
     4  H   -0.007946  -0.007946
     5  H   -0.007946   0.007391
     6  H   -0.028561  -0.028561
     7  H    0.571848  -0.028561
     8  H   -0.028561   0.571848
 Mulliken atomic charges:
              1
     1  C   -0.417010
     2  C   -0.417010
     3  H    0.139003
     4  H    0.139003
     5  H    0.139003
     6  H    0.139003
     7  H    0.139003
     8  H    0.139003
 Sum of Mulliken atomic charges =  -0.00000
 Mulliken charges with hydrogens summed into heavy atoms:
              1
     1  C   -0.000000
     2  C   -0.000000
 Sum of Mulliken charges with hydrogens summed into heavy atoms =  -0.00000
 Electronic spatial extent (au):  <R**2>=            102.5853
 Charge=             -0.0000 electrons
 Dipole moment (field-independent basis, Debye):
    X=              0.0000    Y=              0.0000    Z=              0.0000  Tot=              0.0000
 Quadrupole moment (field-independent basis, Debye-Ang):
   XX=            -14.8492   YY=            -14.8492   ZZ=            -16.5975
   XY=             -0.0000   XZ=             -0.0000   YZ=              0.0000
 Traceless Quadrupole moment (field-independent basis, Debye-Ang):
   XX=              0.5827   YY=              0.5827   ZZ=             -1.1655
   XY=             -0.0000   XZ=             -0.0000   YZ=              0.0000
 Octapole moment (field-independent basis, Debye-Ang**2):
  XXX=              0.0000  YYY=              0.0000  ZZZ=             -0.0000  XYY=              0.0000
  XXY=              0.0000  XXZ=              0.0000  XZZ=              0.0000  YZZ=              0.0000
  YYZ=             -0.0000  XYZ=             -0.0000
 Hexadecapole moment (field-independent basis, Debye-Ang**3):
 XXXX=            -31.4496 YYYY=            -31.4496 ZZZZ=            -88.2617 XXXY=              0.0000
 XXXZ=             -0.0000 YYYX=              0.0000 YYYZ=              1.1336 ZZZX=              0.0000
 ZZZY=             -0.0000 XXYY=            -10.4832 XXZZ=            -19.2483 YYZZ=            -19.2483
 XXYZ=             -1.1336 YYXZ=              0.0000 ZZXY=              0.0000
 N-N= 4.389586162956D+01 E-N=-2.716818644560D+02  KE= 7.922548945531D+01
 Symmetry AG   KE= 3.917941927877D+01
 Symmetry BG   KE= 2.085592453687D+00
 Symmetry AU   KE= 1.802751765152D+00
 Symmetry BU   KE= 3.615772595771D+01
 No NMR shielding tensors so no spin-rotation constants.
 Leave Link  601 at Fri Jun 28 11:32:11 2024, MaxMem=   33554432 cpu:       0.1
 (Enter /programs/64bit/g09/g09-gfortran/bin/l701.exe)
 Compute integral first derivatives.
 ... and contract with generalized density number  0.
 Leave Link  701 at Fri Jun 28 11:32:11 2024, MaxMem=   33554432 cpu:       0.0
 (Enter /programs/64bit/g09/g09-gfortran/bin/l702.exe)
 L702 exits ... SP integral derivatives will be done elsewhere.
 Leave Link  702 at Fri Jun 28 11:32:12 2024, MaxMem=   33554432 cpu:       0.0
 (Enter /programs/64bit/g09/g09-gfortran/bin/l703.exe)
 Compute integral first derivatives, UseDBF=F ICtDFT=           0.
 Integral derivatives from FoFDir, PRISM(SPDF).
 Calling FoFJK, ICntrl=      2127 FMM=F ISym2X=1 I1Cent= 0 IOpClX= 0 NMat=1 NMatS=1 NMatT=0.
 FoFCou: FMM=F IPFlag=           0 FMFlag=      100000 FMFlg1=         800
         NFxFlg=           0 DoJE=F BraDBF=F KetDBF=F FulRan=T
         Omega=  0.000000  0.000000  1.000000  0.000000  0.000000 ICntrl=    2127 IOpCl=  0
         NMat0=    1 NMatS0=    1 NMatT0=    0 NMatD0=    1 NMtDS0=    0 NMtDT0=    0
         I1Cent=           0 NGrid=           0.
 Petite list used in FoFCou.
 Leave Link  703 at Fri Jun 28 11:32:12 2024, MaxMem=   33554432 cpu:       0.5
 (Enter /programs/64bit/g09/g09-gfortran/bin/l716.exe)
 Dipole        = 0.00000000D+00 2.22044605D-16 8.88178420D-16
 ***** Axes restored to original set *****
 -------------------------------------------------------------------
 Center     Atomic                   Forces (Hartrees/Bohr)
 Number     Number              X              Y              Z
 -------------------------------------------------------------------
      1        6           0.000000000   -0.000000000   -0.082007857
      2        6          -0.000000000    0.000000000    0.082007857
      3        1          -0.005008599    0.000000000   -0.009490171
      4        1           0.002504299    0.004337574   -0.009490171
      5        1           0.002504299   -0.004337574   -0.009490171
      6        1          -0.002504299   -0.004337574    0.009490171
      7        1           0.005008599    0.000000000    0.009490171
      8        1          -0.002504299    0.004337574    0.009490171
 -------------------------------------------------------------------
 Cartesian Forces:  Max     0.082007857 RMS     0.024274020
 Leave Link  716 at Fri Jun 28 11:32:12 2024, MaxMem=   33554432 cpu:       0.0
 (Enter /programs/64bit/g09/g09-gfortran/bin/l103.exe)

 GradGradGradGradGradGradGradGradGradGradGradGradGradGradGradGradGradGrad
 Berny optimization.
 Internal  Forces:  Max     0.110478371 RMS     0.022124000
 Search for a local minimum.
 Step number   1 out of a maximum of   38
 All quantities printed in internal units (Hartrees-Bohrs-Radians)
 RMS Force = .22124D-01 SwitMx=.10000D-02 MixMth= 1
 Mixed Optimization -- RFO/linear search
 Second derivative matrix not updated -- first step.
     Eigenvalues ---    0.02089   0.07005   0.07005   0.07005   0.07005
     Eigenvalues ---    0.16000   0.16000   0.16000   0.16000   0.16000
     Eigenvalues ---    0.16000   0.33682   0.33682   0.33682   0.33682
     Eigenvalues ---    0.33682   0.33682   0.456211000.000001000.00000
     Eigenvalues --- 1000.000001000.000001000.000001000.000001000.00000
     Eigenvalues --- 1000.000001000.000001000.00000
 RFO step:  Lambda=-3.27066278D-02 EMin= 2.08875573D-02
 Linear search not attempted -- first point.
 Maximum step size (   0.300) exceeded in Quadratic search.
    -- Step size scaled by   0.994
 Iteration  1 RMS(Cart)=  0.10216747 RMS(Int)=  0.00560514
 Iteration  2 RMS(Cart)=  0.00634159 RMS(Int)=  0.00107687
 Iteration  3 RMS(Cart)=  0.00000221 RMS(Int)=  0.00107687
 Iteration  4 RMS(Cart)=  0.00000000 RMS(Int)=  0.00107687
 ClnCor:  largest displacement from symmetrization is 2.94D-09 for atom     8.
 Variable       Old X    -DE/DX   Delta X   Delta X   Delta X     New X
                                 (Linear)    (Quad)   (Total)
    R1        2.64562   0.11048   0.00000   0.22457   0.22457   2.87018
    R2        2.07870  -0.00165   0.00000  -0.00443  -0.00443   2.07427
    R3        2.07870  -0.00165   0.00000  -0.00443  -0.00443   2.07427
    R4        2.07870  -0.00165   0.00000  -0.00443  -0.00443   2.07427
    R5        2.07870  -0.00165   0.00000  -0.00443  -0.00443   2.07427
    R6        2.07870  -0.00165   0.00000  -0.00443  -0.00443   2.07427
    R7        2.07870  -0.00165   0.00000  -0.00443  -0.00443   2.07427
    A1        1.90241   0.01122   0.00000   0.05785   0.05613   1.95854
    A2        1.90241   0.01122   0.00000   0.05785   0.05613   1.95854
    A3        1.90241   0.01122   0.00000   0.05785   0.05613   1.95854
    A4        1.91879  -0.01102   0.00000  -0.05683  -0.05839   1.86039
    A5        1.91879  -0.01102   0.00000  -0.05683  -0.05839   1.86039
    A6        1.91879  -0.01102   0.00000  -0.05683  -0.05839   1.86039
    A7        1.90241   0.01122   0.00000   0.05785   0.05613   1.95854
    A8        1.90241   0.01122   0.00000   0.05785   0.05613   1.95854
    A9        1.90241   0.01122   0.00000   0.05785   0.05613   1.95854
   A10        1.91879  -0.01102   0.00000  -0.05683  -0.05839   1.86039
   A11        1.91879  -0.01102   0.00000  -0.05683  -0.05839   1.86039
   A12        1.91879  -0.01102   0.00000  -0.05683  -0.05839   1.86039
    D1        1.04720  -0.00000   0.00000  -0.00000   0.00000   1.04720
    D2        3.14159  -0.00000   0.00000   0.00000   0.00000   3.14159
    D3       -1.04720  -0.00000   0.00000   0.00000   0.00000  -1.04720
    D4        3.14159   0.00000   0.00000  -0.00000   0.00000   3.14159
    D5       -1.04720   0.00000   0.00000   0.00000  -0.00000  -1.04720
    D6        1.04720   0.00000   0.00000   0.00000   0.00000   1.04720
    D7       -1.04720  -0.00000   0.00000  -0.00000   0.00000  -1.04720
    D8        1.04720  -0.00000   0.00000   0.00000   0.00000   1.04720
    D9        3.14159  -0.00000   0.00000   0.00000   0.00000   3.14159
         Item               Value     Threshold  Converged?
 Maximum Force            0.110478     0.000450     NO 
 RMS     Force            0.022124     0.000300     NO 
 Maximum Displacement     0.219802     0.001800     NO 
 RMS     Displacement     0.108122     0.001200     NO 
 Predicted change in Energy=-1.781979D-02
 GradGradGradGradGradGradGradGradGradGradGradGradGradGradGradGradGradGrad

 Leave Link  103 at Fri Jun 28 11:32:12 2024, MaxMem=   33554432 cpu:       0.0
 (Enter /programs/64bit/g09/g09-gfortran/bin/l202.exe)
                          Input orientation:                          
 ---------------------------------------------------------------------
 Center     Atomic      Atomic             Coordinates (Angstroms)
 Number     Number       Type             X           Y           Z
 ---------------------------------------------------------------------
      1          6           0        0.000000    0.000000   -0.059417
      2          6           0       -0.000000    0.000000    1.459417
      3          1           0        1.016174   -0.000000   -0.474439
      4          1           0       -0.508087   -0.880032   -0.474439
      5          1           0       -0.508087    0.880032   -0.474439
      6          1           0        0.508087    0.880032    1.874439
      7          1           0       -1.016174    0.000000    1.874439
      8          1           0        0.508087   -0.880032    1.874439
 ---------------------------------------------------------------------
                    Distance matrix (angstroms):
                    1          2          3          4          5
     1  C    0.000000
     2  C    1.518835   0.000000
     3  H    1.097657   2.184585   0.000000
     4  H    1.097657   2.184585   1.760064   0.000000
     5  H    1.097657   2.184585   1.760064   1.760064   0.000000
     6  H    2.184585   1.097657   2.559265   3.106069   2.559265
     7  H    2.184585   1.097657   3.106069   2.559265   2.559265
     8  H    2.184585   1.097657   2.559265   2.559265   3.106069
                    6          7          8
     6  H    0.000000
     7  H    1.760064   0.000000
     8  H    1.760064   1.760064   0.000000
 Stoichiometry    C2H6
 Framework group  D3D[C3(C.C),3SGD(H2)]
 Deg. of freedom     3
 Full point group                 D3D     NOp  12
 Largest Abelian subgroup         C2H     NOp   4
 Largest concise Abelian subgroup C2H     NOp   4
                         Standard orientation:                         
 ---------------------------------------------------------------------
 Center     Atomic      Atomic             Coordinates (Angstroms)
 Number     Number       Type             X           Y           Z
 ---------------------------------------------------------------------
      1          6           0        0.000000    0.000000    0.759417
      2          6           0       -0.000000   -0.000000   -0.759417
      3          1           0        0.000000    1.016174    1.174439
      4          1           0       -0.880032   -0.508087    1.174439
      5          1           0        0.880032   -0.508087    1.174439
      6          1           0        0.880032    0.508087   -1.174439
      7          1           0       -0.000000   -1.016174   -1.174439
      8          1           0       -0.880032    0.508087   -1.174439
 ---------------------------------------------------------------------
 Rotational constants (GHZ):     80.9365987     19.9724345     19.9724345
 Leave Link  202 at Fri Jun 28 11:32:12 2024, MaxMem=   33554432 cpu:       0.0
 (Enter /programs/64bit/g09/g09-gfortran/bin/l301.exe)
 Standard basis: 6-31+G(d,p) (6D, 7F)
 Ernie: Thresh=  0.10000D-02 Tol=  0.10000D-05 Strict=F.
 There are    23 symmetry adapted basis functions of AG  symmetry.
 There are    11 symmetry adapted basis functions of BG  symmetry.
 There are    11 symmetry adapted basis functions of AU  symmetry.
 There are    23 symmetry adapted basis functions of BU  symmetry.
 Integral buffers will be    131072 words long.
 Raffenetti 2 integral format.
 Two-electron integral symmetry is turned on.
    68 basis functions,   106 primitive gaussians,    68 cartesian basis functions
     9 alpha electrons        9 beta electrons
       nuclear repulsion energy        42.1742812667 Hartrees.
 IExCor=  402 DFT=T Ex+Corr=B3LYP ExCW=0 ScaHFX=  0.200000
 ScaDFX=  0.800000  0.720000  1.000000  0.810000 ScalE2=  1.000000  1.000000
 IRadAn=      0 IRanWt=     -1 IRanGd=            0 ICorTp=0
 NAtoms=    8 NActive=    8 NUniq=    2 SFac= 3.00D+00 NAtFMM=   80 NAOKFM=F Big=F
 Leave Link  301 at Fri Jun 28 11:32:12 2024, MaxMem=   33554432 cpu:       0.0
 (Enter /programs/64bit/g09/g09-gfortran/bin/l302.exe)
 NPDir=0 NMtPBC=     1 NCelOv=     1 NCel=       1 NClECP=     1 NCelD=      1
         NCelK=      1 NCelE2=     1 NClLst=     1 CellRange=     0.0.
 One-electron integrals computed using PRISM.
 One-electron integral symmetry used in STVInt
 NBasis=    68 RedAO= T  NBF=    23    11    11    23
 NBsUse=    68 1.00D-06 NBFU=    23    11    11    23
 Precomputing XC quadrature grid using
 IXCGrd= 2 IRadAn=           0 IRanWt=          -1 IRanGd=           0 AccXCQ= 1.00D-10.
 NRdTot=     510 NPtTot=       65100 NUsed=       68787 NTot=       68819
 NSgBfM=    68    68    68    68    68 NAtAll=     8     8.
 Leave Link  302 at Fri Jun 28 11:32:12 2024, MaxMem=   33554432 cpu:       0.1
 (Enter /programs/64bit/g09/g09-gfortran/bin/l303.exe)
 DipDrv:  MaxL=1.
 Leave Link  303 at Fri Jun 28 11:32:12 2024, MaxMem=   33554432 cpu:       0.0
 (Enter /programs/64bit/g09/g09-gfortran/bin/l401.exe)
 Initial guess read from the read-write file.
 B after Tr=     0.000000    0.000000    0.000000
         Rot=    1.000000    0.000000    0.000000    0.000000 Ang=   0.00 deg.
 Guess basis will be translated and rotated to current coordinates.
 Initial guess orbital symmetries:
       Occupied  (A1G) (A2U) (A1G) (A2U) (EU) (EU) (A1G) (EG) (EG)
       Virtual   (A1G) (A2U) (EU) (EU) (A1G) (EG) (EG) (A2U) (EG)
                 (EG) (EU) (EU) (A2U) (A1G) (A2U) (A1G) (EU) (EU)
                 (EG) (EG) (A2U) (EU) (EU) (EG) (EG) (A1G) (A2U)
                 (A1G) (EU) (EU) (A2U) (EG) (EG) (A1U) (A2G) (EG)
                 (EG) (A1G) (EU) (EU) (EU) (EU) (A2U) (EG) (EG)
                 (A1G) (A2U) (EU) (EU) (EG) (EG) (A1G) (A2U) (EG)
                 (EG) (EU) (EU) (A1G) (A2U)
 The electronic state of the initial guess is 1-A1G.
 Generating alternative initial guess.
 Harris functional with IExCor=  402 diagonalized for initial guess.
 ExpMin= 4.38D-02 ExpMax= 3.05D+03 ExpMxC= 4.57D+02 IAcc=2 IRadAn=         0 AccDes= 0.00D+00
 HarFok:  IExCor=  402 AccDes= 0.00D+00 IRadAn=         0 IDoV= 1
 ScaDFX=  1.000000  1.000000  1.000000  1.000000
 FoFCou: FMM=F IPFlag=           0 FMFlag=      100000 FMFlg1=           0
         NFxFlg=           0 DoJE=T BraDBF=F KetDBF=T FulRan=T
         Omega=  0.000000  0.000000  1.000000  0.000000  0.000000 ICntrl=     500 IOpCl=  0
         NMat0=    1 NMatS0=    1 NMatT0=    0 NMatD0=    1 NMtDS0=    0 NMtDT0=    0
         I1Cent=           4 NGrid=           0.
 Petite list used in FoFCou.
 Harris En= -79.8983011109567    
 Leave Link  401 at Fri Jun 28 11:32:13 2024, MaxMem=   33554432 cpu:       0.7
 (Enter /programs/64bit/g09/g09-gfortran/bin/l502.exe)
 Closed shell SCF:
 Requested convergence on RMS density matrix=1.00D-08 within 128 cycles.
 Requested convergence on MAX density matrix=1.00D-06.
 Requested convergence on             energy=1.00D-06.
 No special actions if energy rises.
 Using DIIS extrapolation, IDIIS=  1040.
 Integral symmetry usage will be decided dynamically.
        68702 words used for storage of precomputed grid.
 Keep R1 ints in memory in canonical form, NReq=3743695.
 IEnd=      102160 IEndB=      102160 NGot=    33554432 MDV=    30720546
 LenX=    30720546 LenY=    30715481
 Symmetry not used in FoFDir.
 MinBra= 0 MaxBra= 2 Meth= 1.
 IRaf=       0 NMat=   1 IRICut=       1 DoRegI=T DoRafI=F ISym2E= 0 JSym2E=0.

 Cycle   1  Pass 1  IDiag  1:
 E= -79.8378036112747    
 DIIS: error= 7.07D-03 at cycle   1 NSaved=   1.
 NSaved= 1 IEnMin= 1 EnMin= -79.8378036112747     IErMin= 1 ErrMin= 7.07D-03
 ErrMax= 7.07D-03 EMaxC= 1.00D-01 BMatC= 2.69D-03 BMatP= 2.69D-03
 IDIUse=3 WtCom= 9.29D-01 WtEn= 7.07D-02
 Coeff-Com:  0.100D+01
 Coeff-En:   0.100D+01
 Coeff:      0.100D+01
 Gap=     0.363 Goal=   None    Shift=    0.000
 GapD=    0.363 DampG=1.000 DampE=1.000 DampFc=1.0000 IDamp=-1.
 RMSDP=1.01D-03 MaxDP=1.06D-02              OVMax= 2.61D-02

 Cycle   2  Pass 1  IDiag  1:
 E= -79.8411812406247     Delta-E=       -0.003377629350 Rises=F Damp=F
 DIIS: error= 2.66D-03 at cycle   2 NSaved=   2.
 NSaved= 2 IEnMin= 2 EnMin= -79.8411812406247     IErMin= 2 ErrMin= 2.66D-03
 ErrMax= 2.66D-03 EMaxC= 1.00D-01 BMatC= 2.50D-04 BMatP= 2.69D-03
 IDIUse=3 WtCom= 9.73D-01 WtEn= 2.66D-02
 Coeff-Com:  0.155D+00 0.845D+00
 Coeff-En:   0.000D+00 0.100D+01
 Coeff:      0.151D+00 0.849D+00
 Gap=     0.361 Goal=   None    Shift=    0.000
 RMSDP=2.81D-04 MaxDP=3.94D-03 DE=-3.38D-03 OVMax= 6.22D-03

 Cycle   3  Pass 1  IDiag  1:
 E= -79.8412920385644     Delta-E=       -0.000110797940 Rises=F Damp=F
 DIIS: error= 1.59D-03 at cycle   3 NSaved=   3.
 NSaved= 3 IEnMin= 3 EnMin= -79.8412920385644     IErMin= 3 ErrMin= 1.59D-03
 ErrMax= 1.59D-03 EMaxC= 1.00D-01 BMatC= 1.17D-04 BMatP= 2.50D-04
 IDIUse=3 WtCom= 9.84D-01 WtEn= 1.59D-02
 Coeff-Com:  0.823D-02 0.402D+00 0.590D+00
 Coeff-En:   0.000D+00 0.327D+00 0.673D+00
 Coeff:      0.810D-02 0.401D+00 0.591D+00
 Gap=     0.359 Goal=   None    Shift=    0.000
 RMSDP=1.49D-04 MaxDP=2.29D-03 DE=-1.11D-04 OVMax= 3.34D-03

 Cycle   4  Pass 1  IDiag  1:
 E= -79.8414077303597     Delta-E=       -0.000115691795 Rises=F Damp=F
 DIIS: error= 3.70D-04 at cycle   4 NSaved=   4.
 NSaved= 4 IEnMin= 4 EnMin= -79.8414077303597     IErMin= 4 ErrMin= 3.70D-04
 ErrMax= 3.70D-04 EMaxC= 1.00D-01 BMatC= 5.41D-06 BMatP= 1.17D-04
 IDIUse=3 WtCom= 9.96D-01 WtEn= 3.70D-03
 Coeff-Com: -0.643D-02 0.865D-01 0.239D+00 0.681D+00
 Coeff-En:   0.000D+00 0.000D+00 0.000D+00 0.100D+01
 Coeff:     -0.641D-02 0.862D-01 0.238D+00 0.682D+00
 Gap=     0.360 Goal=   None    Shift=    0.000
 RMSDP=2.93D-05 MaxDP=4.29D-04 DE=-1.16D-04 OVMax= 6.32D-04

 Cycle   5  Pass 1  IDiag  1:
 E= -79.8414134762621     Delta-E=       -0.000005745902 Rises=F Damp=F
 DIIS: error= 1.17D-05 at cycle   5 NSaved=   5.
 NSaved= 5 IEnMin= 5 EnMin= -79.8414134762621     IErMin= 5 ErrMin= 1.17D-05
 ErrMax= 1.17D-05 EMaxC= 1.00D-01 BMatC= 5.82D-09 BMatP= 5.41D-06
 IDIUse=1 WtCom= 1.00D+00 WtEn= 0.00D+00
 Coeff-Com: -0.381D-03-0.114D-02 0.970D-02 0.493D-01 0.943D+00
 Coeff:     -0.381D-03-0.114D-02 0.970D-02 0.493D-01 0.943D+00
 Gap=     0.360 Goal=   None    Shift=    0.000
 RMSDP=1.33D-06 MaxDP=1.56D-05 DE=-5.75D-06 OVMax= 2.67D-05

 Cycle   6  Pass 1  IDiag  1:
 E= -79.8414134821390     Delta-E=       -0.000000005877 Rises=F Damp=F
 DIIS: error= 6.49D-07 at cycle   6 NSaved=   6.
 NSaved= 6 IEnMin= 6 EnMin= -79.8414134821390     IErMin= 6 ErrMin= 6.49D-07
 ErrMax= 6.49D-07 EMaxC= 1.00D-01 BMatC= 1.33D-11 BMatP= 5.82D-09
 IDIUse=1 WtCom= 1.00D+00 WtEn= 0.00D+00
 Coeff-Com:  0.155D-04-0.292D-03-0.885D-03-0.119D-02 0.378D-02 0.999D+00
 Coeff:      0.155D-04-0.292D-03-0.885D-03-0.119D-02 0.378D-02 0.999D+00
 Gap=     0.360 Goal=   None    Shift=    0.000
 RMSDP=5.58D-08 MaxDP=5.64D-07 DE=-5.88D-09 OVMax= 1.55D-06

 Cycle   7  Pass 1  IDiag  1:
 E= -79.8414134821556     Delta-E=       -0.000000000017 Rises=F Damp=F
 DIIS: error= 2.81D-08 at cycle   7 NSaved=   7.
 NSaved= 7 IEnMin= 7 EnMin= -79.8414134821556     IErMin= 7 ErrMin= 2.81D-08
 ErrMax= 2.81D-08 EMaxC= 1.00D-01 BMatC= 3.02D-14 BMatP= 1.33D-11
 IDIUse=1 WtCom= 1.00D+00 WtEn= 0.00D+00
 Coeff-Com:  0.176D-05-0.719D-05-0.590D-04-0.242D-03-0.244D-02 0.361D-01
 Coeff-Com:  0.967D+00
 Coeff:      0.176D-05-0.719D-05-0.590D-04-0.242D-03-0.244D-02 0.361D-01
 Coeff:      0.967D+00
 Gap=     0.360 Goal=   None    Shift=    0.000
 RMSDP=4.94D-09 MaxDP=5.08D-08 DE=-1.66D-11 OVMax= 8.42D-08

 SCF Done:  E(RB3LYP) =  -79.8414134822     A.U. after    7 cycles
             Convg  =    0.4940D-08             -V/T =  2.0110
 KE= 7.897206654220D+01 PE=-2.680791789478D+02 EE= 6.709141765675D+01
 Leave Link  502 at Fri Jun 28 11:32:16 2024, MaxMem=   33554432 cpu:       2.3
 (Enter /programs/64bit/g09/g09-gfortran/bin/l701.exe)
 Compute integral first derivatives.
 ... and contract with generalized density number  0.
 Leave Link  701 at Fri Jun 28 11:32:16 2024, MaxMem=   33554432 cpu:       0.2
 (Enter /programs/64bit/g09/g09-gfortran/bin/l702.exe)
 L702 exits ... SP integral derivatives will be done elsewhere.
 Leave Link  702 at Fri Jun 28 11:32:16 2024, MaxMem=   33554432 cpu:       0.0
 (Enter /programs/64bit/g09/g09-gfortran/bin/l703.exe)
 Compute integral first derivatives, UseDBF=F ICtDFT=           0.
 Integral derivatives from FoFDir, PRISM(SPDF).
 Calling FoFJK, ICntrl=      2127 FMM=F ISym2X=1 I1Cent= 0 IOpClX= 0 NMat=1 NMatS=1 NMatT=0.
 FoFCou: FMM=F IPFlag=           0 FMFlag=      100000 FMFlg1=         800
         NFxFlg=           0 DoJE=F BraDBF=F KetDBF=F FulRan=T
         Omega=  0.000000  0.000000  1.000000  0.000000  0.000000 ICntrl=    2127 IOpCl=  0
         NMat0=    1 NMatS0=    1 NMatT0=    0 NMatD0=    1 NMtDS0=    0 NMtDT0=    0
         I1Cent=           0 NGrid=           0.
 Petite list used in FoFCou.
 Leave Link  703 at Fri Jun 28 11:32:17 2024, MaxMem=   33554432 cpu:       0.6
 (Enter /programs/64bit/g09/g09-gfortran/bin/l716.exe)
 Dipole        = 2.22044605D-16-1.11022302D-16 4.44089210D-16
 ***** Axes restored to original set *****
 -------------------------------------------------------------------
 Center     Atomic                   Forces (Hartrees/Bohr)
 Number     Number              X              Y              Z
 -------------------------------------------------------------------
      1        6           0.000000000   -0.000000000   -0.010199323
      2        6          -0.000000000   -0.000000000    0.010199323
      3        1          -0.000147854    0.000000000    0.001962637
      4        1           0.000073927    0.000128045    0.001962637
      5        1           0.000073927   -0.000128045    0.001962637
      6        1          -0.000073927   -0.000128045   -0.001962637
      7        1           0.000147854    0.000000000   -0.001962637
      8        1          -0.000073927    0.000128045   -0.001962637
 -------------------------------------------------------------------
 Cartesian Forces:  Max     0.010199323 RMS     0.003104400
 Leave Link  716 at Fri Jun 28 11:32:17 2024, MaxMem=   33554432 cpu:       0.0
 (Enter /programs/64bit/g09/g09-gfortran/bin/l103.exe)

 GradGradGradGradGradGradGradGradGradGradGradGradGradGradGradGradGradGrad
 Berny optimization.
 Using GEDIIS/GDIIS optimizer.
 Internal  Forces:  Max     0.004311412 RMS     0.001459025
 Search for a local minimum.
 Step number   2 out of a maximum of   38
 All quantities printed in internal units (Hartrees-Bohrs-Radians)
 RMS Force = .14590D-02 SwitMx=.10000D-02 MixMth= 1
 Mixed Optimization -- RFO/linear search
 Update second derivatives using D2CorX and points    1    2
 DE= -1.48D-02 DEPred=-1.78D-02 R= 8.31D-01
 SS=  1.41D+00  RLast= 3.00D-01 DXNew= 5.0454D-01 8.9955D-01
 Trust test= 8.31D-01 RLast= 3.00D-01 DXMaxT set to 5.05D-01
 Use linear search instead of GDIIS.
     Eigenvalues ---    0.02089   0.06480   0.06480   0.06480   0.06480
     Eigenvalues ---    0.16000   0.16000   0.16000   0.16000   0.16000
     Eigenvalues ---    0.18188   0.33607   0.33682   0.33682   0.33682
     Eigenvalues ---    0.33682   0.33682   0.448011000.000001000.00000
     Eigenvalues --- 1000.000001000.000001000.000001000.000001000.00000
     Eigenvalues --- 1000.000001000.000001000.00000
 RFO step:  Lambda=-2.79455748D-04 EMin= 2.08875573D-02
 Quartic linear search produced a step of -0.00817.
 Iteration  1 RMS(Cart)=  0.00690231 RMS(Int)=  0.00005414
 Iteration  2 RMS(Cart)=  0.00005484 RMS(Int)=  0.00002011
 Iteration  3 RMS(Cart)=  0.00000000 RMS(Int)=  0.00002011
 ClnCor:  largest displacement from symmetrization is 1.14D-08 for atom     7.
 Variable       Old X    -DE/DX   Delta X   Delta X   Delta X     New X
                                 (Linear)    (Quad)   (Total)
    R1        2.87018   0.00431  -0.00183   0.01397   0.01214   2.88232
    R2        2.07427  -0.00088   0.00004  -0.00268  -0.00264   2.07163
    R3        2.07427  -0.00088   0.00004  -0.00268  -0.00264   2.07163
    R4        2.07427  -0.00088   0.00004  -0.00268  -0.00264   2.07163
    R5        2.07427  -0.00088   0.00004  -0.00268  -0.00264   2.07163
    R6        2.07427  -0.00088   0.00004  -0.00268  -0.00264   2.07163
    R7        2.07427  -0.00088   0.00004  -0.00268  -0.00264   2.07163
    A1        1.95854  -0.00166  -0.00046  -0.00925  -0.00974   1.94880
    A2        1.95854  -0.00166  -0.00046  -0.00925  -0.00974   1.94880
    A3        1.95854  -0.00166  -0.00046  -0.00925  -0.00974   1.94880
    A4        1.86039   0.00182   0.00048   0.01013   0.01058   1.87097
    A5        1.86039   0.00182   0.00048   0.01013   0.01058   1.87097
    A6        1.86039   0.00182   0.00048   0.01013   0.01058   1.87097
    A7        1.95854  -0.00166  -0.00046  -0.00925  -0.00974   1.94880
    A8        1.95854  -0.00166  -0.00046  -0.00925  -0.00974   1.94880
    A9        1.95854  -0.00166  -0.00046  -0.00925  -0.00974   1.94880
   A10        1.86039   0.00182   0.00048   0.01013   0.01058   1.87097
   A11        1.86039   0.00182   0.00048   0.01013   0.01058   1.87097
   A12        1.86039   0.00182   0.00048   0.01013   0.01058   1.87097
    D1        1.04720  -0.00000  -0.00000   0.00000  -0.00000   1.04720
    D2        3.14159  -0.00000   0.00000  -0.00000   0.00000   3.14159
    D3       -1.04720  -0.00000   0.00000  -0.00000   0.00000  -1.04720
    D4        3.14159  -0.00000   0.00000   0.00000   0.00000   3.14159
    D5       -1.04720  -0.00000   0.00000   0.00000   0.00000  -1.04720
    D6        1.04720  -0.00000  -0.00000  -0.00000   0.00000   1.04720
    D7       -1.04720  -0.00000   0.00000  -0.00000   0.00000  -1.04720
    D8        1.04720   0.00000  -0.00000  -0.00000  -0.00000   1.04720
    D9       -3.14159  -0.00000  -0.00000  -0.00000  -0.00000  -3.14159
         Item               Value     Threshold  Converged?
 Maximum Force            0.004311     0.000450     NO 
 RMS     Force            0.001459     0.000300     NO 
 Maximum Displacement     0.013642     0.001800     NO 
 RMS     Displacement     0.006933     0.001200     NO 
 Predicted change in Energy=-1.380987D-04
 GradGradGradGradGradGradGradGradGradGradGradGradGradGradGradGradGradGrad

 Leave Link  103 at Fri Jun 28 11:32:17 2024, MaxMem=   33554432 cpu:       0.0
 (Enter /programs/64bit/g09/g09-gfortran/bin/l202.exe)
                          Input orientation:                          
 ---------------------------------------------------------------------
 Center     Atomic      Atomic             Coordinates (Angstroms)
 Number     Number       Type             X           Y           Z
 ---------------------------------------------------------------------
      1          6           0       -0.000000   -0.000000   -0.062629
      2          6           0       -0.000000   -0.000000    1.462629
      3          1           0        1.018869    0.000000   -0.467220
      4          1           0       -0.509435   -0.882366   -0.467220
      5          1           0       -0.509435    0.882366   -0.467220
      6          1           0        0.509435    0.882366    1.867220
      7          1           0       -1.018869   -0.000000    1.867220
      8          1           0        0.509435   -0.882366    1.867220
 ---------------------------------------------------------------------
                    Distance matrix (angstroms):
                    1          2          3          4          5
     1  C    0.000000
     2  C    1.525259   0.000000
     3  H    1.096261   2.182295   0.000000
     4  H    1.096261   2.182295   1.764733   0.000000
     5  H    1.096261   2.182295   1.764733   1.764733   0.000000
     6  H    2.182295   1.096261   2.547097   3.098707   2.547097
     7  H    2.182295   1.096261   3.098707   2.547097   2.547097
     8  H    2.182295   1.096261   2.547097   2.547097   3.098707
                    6          7          8
     6  H    0.000000
     7  H    1.764733   0.000000
     8  H    1.764733   1.764733   0.000000
 Stoichiometry    C2H6
 Framework group  D3D[C3(C.C),3SGD(H2)]
 Deg. of freedom     3
 Full point group                 D3D     NOp  12
 Largest Abelian subgroup         C2H     NOp   4
 Largest concise Abelian subgroup C2H     NOp   4
                         Standard orientation:                         
 ---------------------------------------------------------------------
 Center     Atomic      Atomic             Coordinates (Angstroms)
 Number     Number       Type             X           Y           Z
 ---------------------------------------------------------------------
      1          6           0        0.000000    0.000000    0.762629
      2          6           0       -0.000000   -0.000000   -0.762629
      3          1           0        0.000000    1.018869    1.167220
      4          1           0       -0.882366   -0.509435    1.167220
      5          1           0        0.882366   -0.509435    1.167220
      6          1           0        0.882366    0.509435   -1.167220
      7          1           0       -0.000000   -1.018869   -1.167220
      8          1           0       -0.882366    0.509435   -1.167220
 ---------------------------------------------------------------------
 Rotational constants (GHZ):     80.5089338     19.9474497     19.9474497
 Leave Link  202 at Fri Jun 28 11:32:17 2024, MaxMem=   33554432 cpu:       0.0
 (Enter /programs/64bit/g09/g09-gfortran/bin/l301.exe)
 Standard basis: 6-31+G(d,p) (6D, 7F)
 Ernie: Thresh=  0.10000D-02 Tol=  0.10000D-05 Strict=F.
 There are    23 symmetry adapted basis functions of AG  symmetry.
 There are    11 symmetry adapted basis functions of BG  symmetry.
 There are    11 symmetry adapted basis functions of AU  symmetry.
 There are    23 symmetry adapted basis functions of BU  symmetry.
 Integral buffers will be    131072 words long.
 Raffenetti 2 integral format.
 Two-electron integral symmetry is turned on.
    68 basis functions,   106 primitive gaussians,    68 cartesian basis functions
     9 alpha electrons        9 beta electrons
       nuclear repulsion energy        42.1550823702 Hartrees.
 IExCor=  402 DFT=T Ex+Corr=B3LYP ExCW=0 ScaHFX=  0.200000
 ScaDFX=  0.800000  0.720000  1.000000  0.810000 ScalE2=  1.000000  1.000000
 IRadAn=      0 IRanWt=     -1 IRanGd=            0 ICorTp=0
 NAtoms=    8 NActive=    8 NUniq=    2 SFac= 3.00D+00 NAtFMM=   80 NAOKFM=F Big=F
 Leave Link  301 at Fri Jun 28 11:32:17 2024, MaxMem=   33554432 cpu:       0.0
 (Enter /programs/64bit/g09/g09-gfortran/bin/l302.exe)
 NPDir=0 NMtPBC=     1 NCelOv=     1 NCel=       1 NClECP=     1 NCelD=      1
         NCelK=      1 NCelE2=     1 NClLst=     1 CellRange=     0.0.
 One-electron integrals computed using PRISM.
 One-electron integral symmetry used in STVInt
 NBasis=    68 RedAO= T  NBF=    23    11    11    23
 NBsUse=    68 1.00D-06 NBFU=    23    11    11    23
 Precomputing XC quadrature grid using
 IXCGrd= 2 IRadAn=           0 IRanWt=          -1 IRanGd=           0 AccXCQ= 1.00D-10.
 NRdTot=     510 NPtTot=       65100 NUsed=       68787 NTot=       68819
 NSgBfM=    68    68    68    68    68 NAtAll=     8     8.
 Leave Link  302 at Fri Jun 28 11:32:17 2024, MaxMem=   33554432 cpu:       0.0
 (Enter /programs/64bit/g09/g09-gfortran/bin/l303.exe)
 DipDrv:  MaxL=1.
 Leave Link  303 at Fri Jun 28 11:32:17 2024, MaxMem=   33554432 cpu:       0.0
 (Enter /programs/64bit/g09/g09-gfortran/bin/l401.exe)
 Initial guess read from the read-write file.
 B after Tr=     0.000000    0.000000    0.000000
         Rot=    1.000000    0.000000    0.000000    0.000000 Ang=   0.00 deg.
 Guess basis will be translated and rotated to current coordinates.
 Initial guess orbital symmetries:
       Occupied  (A1G) (A2U) (A1G) (A2U) (EU) (EU) (A1G) (EG) (EG)
       Virtual   (A1G) (A2U) (EU) (EU) (A1G) (EG) (EG) (A2U) (EU)
                 (EU) (EG) (EG) (A2U) (A1G) (A2U) (A1G) (EU) (EU)
                 (EG) (EG) (A2U) (EU) (EU) (EG) (EG) (A1G) (A2U)
                 (A1G) (EU) (EU) (A2U) (EG) (EG) (A1G) (A1U) (A2G)
                 (EU) (EU) (EG) (EG) (EU) (EU) (A2U) (EG) (EG)
                 (A1G) (EU) (EU) (A2U) (EG) (EG) (A1G) (A2U) (EG)
                 (EG) (EU) (EU) (A1G) (A2U)
 The electronic state of the initial guess is 1-A1G.
 Leave Link  401 at Fri Jun 28 11:32:17 2024, MaxMem=   33554432 cpu:       0.1
 (Enter /programs/64bit/g09/g09-gfortran/bin/l502.exe)
 Closed shell SCF:
 Requested convergence on RMS density matrix=1.00D-08 within 128 cycles.
 Requested convergence on MAX density matrix=1.00D-06.
 Requested convergence on             energy=1.00D-06.
 No special actions if energy rises.
 Using DIIS extrapolation, IDIIS=  1040.
 Integral symmetry usage will be decided dynamically.
        68702 words used for storage of precomputed grid.
 Keep R1 ints in memory in canonical form, NReq=3743695.
 IEnd=      102160 IEndB=      102160 NGot=    33554432 MDV=    30720546
 LenX=    30720546 LenY=    30715481
 Symmetry not used in FoFDir.
 MinBra= 0 MaxBra= 2 Meth= 1.
 IRaf=       0 NMat=   1 IRICut=       1 DoRegI=T DoRafI=F ISym2E= 0 JSym2E=0.

 Cycle   1  Pass 1  IDiag  1:
 E= -79.8415706186838    
 DIIS: error= 7.35D-04 at cycle   1 NSaved=   1.
 NSaved= 1 IEnMin= 1 EnMin= -79.8415706186838     IErMin= 1 ErrMin= 7.35D-04
 ErrMax= 7.35D-04 EMaxC= 1.00D-01 BMatC= 2.15D-05 BMatP= 2.15D-05
 IDIUse=3 WtCom= 9.93D-01 WtEn= 7.35D-03
 Coeff-Com:  0.100D+01
 Coeff-En:   0.100D+01
 Coeff:      0.100D+01
 Gap=     0.361 Goal=   None    Shift=    0.000
 RMSDP=9.63D-05 MaxDP=1.07D-03              OVMax= 2.21D-03

 Cycle   2  Pass 1  IDiag  1:
 E= -79.8416043145607     Delta-E=       -0.000033695877 Rises=F Damp=F
 DIIS: error= 1.06D-04 at cycle   2 NSaved=   2.
 NSaved= 2 IEnMin= 2 EnMin= -79.8416043145607     IErMin= 2 ErrMin= 1.06D-04
 ErrMax= 1.06D-04 EMaxC= 1.00D-01 BMatC= 4.32D-07 BMatP= 2.15D-05
 IDIUse=3 WtCom= 9.99D-01 WtEn= 1.06D-03
 Coeff-Com: -0.179D-01 0.102D+01
 Coeff-En:   0.000D+00 0.100D+01
 Coeff:     -0.179D-01 0.102D+01
 Gap=     0.361 Goal=   None    Shift=    0.000
 RMSDP=1.90D-05 MaxDP=2.20D-04 DE=-3.37D-05 OVMax= 5.33D-04

 Cycle   3  Pass 1  IDiag  1:
 E= -79.8416042721175     Delta-E=        0.000000042443 Rises=F Damp=F
 DIIS: error= 1.19D-04 at cycle   3 NSaved=   3.
 NSaved= 3 IEnMin= 2 EnMin= -79.8416043145607     IErMin= 2 ErrMin= 1.06D-04
 ErrMax= 1.19D-04 EMaxC= 1.00D-01 BMatC= 5.83D-07 BMatP= 4.32D-07
 IDIUse=3 WtCom= 4.78D-01 WtEn= 5.22D-01
 Coeff-Com: -0.279D-01 0.562D+00 0.466D+00
 Coeff-En:   0.000D+00 0.520D+00 0.480D+00
 Coeff:     -0.133D-01 0.540D+00 0.473D+00
 Gap=     0.361 Goal=   None    Shift=    0.000
 RMSDP=9.45D-06 MaxDP=1.48D-04 DE= 4.24D-08 OVMax= 2.00D-04

 Cycle   4  Pass 1  IDiag  1:
 E= -79.8416048802057     Delta-E=       -0.000000608088 Rises=F Damp=F
 DIIS: error= 6.64D-06 at cycle   4 NSaved=   4.
 NSaved= 4 IEnMin= 4 EnMin= -79.8416048802057     IErMin= 4 ErrMin= 6.64D-06
 ErrMax= 6.64D-06 EMaxC= 1.00D-01 BMatC= 2.66D-09 BMatP= 4.32D-07
 IDIUse=1 WtCom= 1.00D+00 WtEn= 0.00D+00
 Coeff-Com: -0.474D-02 0.427D-01 0.851D-01 0.877D+00
 Coeff:     -0.474D-02 0.427D-01 0.851D-01 0.877D+00
 Gap=     0.361 Goal=   None    Shift=    0.000
 RMSDP=6.75D-07 MaxDP=1.06D-05 DE=-6.08D-07 OVMax= 1.84D-05

 Cycle   5  Pass 1  IDiag  1:
 E= -79.8416048828579     Delta-E=       -0.000000002652 Rises=F Damp=F
 DIIS: error= 8.49D-07 at cycle   5 NSaved=   5.
 NSaved= 5 IEnMin= 5 EnMin= -79.8416048828579     IErMin= 5 ErrMin= 8.49D-07
 ErrMax= 8.49D-07 EMaxC= 1.00D-01 BMatC= 3.67D-11 BMatP= 2.66D-09
 IDIUse=1 WtCom= 1.00D+00 WtEn= 0.00D+00
 Coeff-Com: -0.448D-03 0.133D-02 0.107D-01 0.188D+00 0.800D+00
 Coeff:     -0.448D-03 0.133D-02 0.107D-01 0.188D+00 0.800D+00
 Gap=     0.361 Goal=   None    Shift=    0.000
 RMSDP=9.65D-08 MaxDP=9.53D-07 DE=-2.65D-09 OVMax= 2.17D-06

 Cycle   6  Pass 1  IDiag  1:
 E= -79.8416048828942     Delta-E=       -0.000000000036 Rises=F Damp=F
 DIIS: error= 9.25D-08 at cycle   6 NSaved=   6.
 NSaved= 6 IEnMin= 6 EnMin= -79.8416048828942     IErMin= 6 ErrMin= 9.25D-08
 ErrMax= 9.25D-08 EMaxC= 1.00D-01 BMatC= 3.53D-13 BMatP= 3.67D-11
 IDIUse=1 WtCom= 1.00D+00 WtEn= 0.00D+00
 Coeff-Com:  0.609D-04-0.895D-03-0.795D-03-0.916D-02 0.430D-01 0.968D+00
 Coeff:      0.609D-04-0.895D-03-0.795D-03-0.916D-02 0.430D-01 0.968D+00
 Gap=     0.361 Goal=   None    Shift=    0.000
 RMSDP=1.26D-08 MaxDP=1.48D-07 DE=-3.64D-11 OVMax= 3.35D-07

 Cycle   7  Pass 1  IDiag  1:
 E= -79.8416048828948     Delta-E=       -0.000000000001 Rises=F Damp=F
 DIIS: error= 1.76D-09 at cycle   7 NSaved=   7.
 NSaved= 7 IEnMin= 7 EnMin= -79.8416048828948     IErMin= 7 ErrMin= 1.76D-09
 ErrMax= 1.76D-09 EMaxC= 1.00D-01 BMatC= 1.46D-16 BMatP= 3.53D-13
 IDIUse=1 WtCom= 1.00D+00 WtEn= 0.00D+00
 Coeff-Com: -0.700D-06 0.185D-04 0.390D-05-0.318D-04-0.376D-02-0.279D-01
 Coeff-Com:  0.103D+01
 Coeff:     -0.700D-06 0.185D-04 0.390D-05-0.318D-04-0.376D-02-0.279D-01
 Coeff:      0.103D+01
 Gap=     0.361 Goal=   None    Shift=    0.000
 RMSDP=6.12D-10 MaxDP=6.49D-09 DE=-5.68D-13 OVMax= 9.89D-09

 SCF Done:  E(RB3LYP) =  -79.8416048829     A.U. after    7 cycles
             Convg  =    0.6118D-09             -V/T =  2.0110
 KE= 7.897553188320D+01 PE=-2.680468473129D+02 EE= 6.707462817656D+01
 Leave Link  502 at Fri Jun 28 11:32:19 2024, MaxMem=   33554432 cpu:       1.7
 (Enter /programs/64bit/g09/g09-gfortran/bin/l701.exe)
 Compute integral first derivatives.
 ... and contract with generalized density number  0.
 Leave Link  701 at Fri Jun 28 11:32:19 2024, MaxMem=   33554432 cpu:       0.0
 (Enter /programs/64bit/g09/g09-gfortran/bin/l702.exe)
 L702 exits ... SP integral derivatives will be done elsewhere.
 Leave Link  702 at Fri Jun 28 11:32:19 2024, MaxMem=   33554432 cpu:       0.0
 (Enter /programs/64bit/g09/g09-gfortran/bin/l703.exe)
 Compute integral first derivatives, UseDBF=F ICtDFT=           0.
 Integral derivatives from FoFDir, PRISM(SPDF).
 Calling FoFJK, ICntrl=      2127 FMM=F ISym2X=1 I1Cent= 0 IOpClX= 0 NMat=1 NMatS=1 NMatT=0.
 FoFCou: FMM=F IPFlag=           0 FMFlag=      100000 FMFlg1=         800
         NFxFlg=           0 DoJE=F BraDBF=F KetDBF=F FulRan=T
         Omega=  0.000000  0.000000  1.000000  0.000000  0.000000 ICntrl=    2127 IOpCl=  0
         NMat0=    1 NMatS0=    1 NMatT0=    0 NMatD0=    1 NMtDS0=    0 NMtDT0=    0
         I1Cent=           0 NGrid=           0.
 Petite list used in FoFCou.
 Leave Link  703 at Fri Jun 28 11:32:20 2024, MaxMem=   33554432 cpu:       0.9
 (Enter /programs/64bit/g09/g09-gfortran/bin/l716.exe)
 Dipole        =-2.22044605D-16 3.33066907D-16 1.33226763D-15
 ***** Axes restored to original set *****
 -------------------------------------------------------------------
 Center     Atomic                   Forces (Hartrees/Bohr)
 Number     Number              X              Y              Z
 -------------------------------------------------------------------
      1        6           0.000000000   -0.000000000   -0.004487470
      2        6           0.000000000    0.000000000    0.004487470
      3        1          -0.000015877    0.000000000    0.000606153
      4        1           0.000007939    0.000013750    0.000606153
      5        1           0.000007939   -0.000013750    0.000606153
      6        1          -0.000007939   -0.000013750   -0.000606153
      7        1           0.000015877    0.000000000   -0.000606153
      8        1          -0.000007939    0.000013750   -0.000606153
 -------------------------------------------------------------------
 Cartesian Forces:  Max     0.004487470 RMS     0.001330426
 Leave Link  716 at Fri Jun 28 11:32:20 2024, MaxMem=   33554432 cpu:       0.0
 (Enter /programs/64bit/g09/g09-gfortran/bin/l103.exe)

 GradGradGradGradGradGradGradGradGradGradGradGradGradGradGradGradGradGrad
 Berny optimization.
 Using GEDIIS/GDIIS optimizer.
 Internal  Forces:  Max     0.002669011 RMS     0.000631592
 Search for a local minimum.
 Step number   3 out of a maximum of   38
 All quantities printed in internal units (Hartrees-Bohrs-Radians)
 RMS Force = .63159D-03 SwitMx=.10000D-02 MixMth= 2
 Mixed Optimization -- En-DIIS/RFO-DIIS
 Update second derivatives using D2CorX and points    1    2    3
 DE= -1.91D-04 DEPred=-1.38D-04 R= 1.39D+00
 SS=  1.41D+00  RLast= 3.78D-02 DXNew= 8.4853D-01 1.1344D-01
 Trust test= 1.39D+00 RLast= 3.78D-02 DXMaxT set to 5.05D-01
 Use linear search instead of GDIIS.
     Eigenvalues ---    0.02089   0.06571   0.06571   0.06571   0.06571
     Eigenvalues ---    0.11996   0.16000   0.16000   0.16000   0.16000
     Eigenvalues ---    0.16000   0.33131   0.33682   0.33682   0.33682
     Eigenvalues ---    0.33682   0.33682   0.424201000.000001000.00000
     Eigenvalues --- 1000.000001000.000001000.000001000.000001000.00000
     Eigenvalues --- 1000.000001000.000001000.00000
 RFO step:  Lambda=-7.67120508D-06 EMin= 2.08875573D-02
 Quartic linear search produced a step of  0.59323.
 Iteration  1 RMS(Cart)=  0.00321433 RMS(Int)=  0.00003057
 Iteration  2 RMS(Cart)=  0.00001772 RMS(Int)=  0.00002600
 Iteration  3 RMS(Cart)=  0.00000000 RMS(Int)=  0.00002600
 ClnCor:  largest displacement from symmetrization is 3.88D-09 for atom     8.
 Variable       Old X    -DE/DX   Delta X   Delta X   Delta X     New X
                                 (Linear)    (Quad)   (Total)
    R1        2.88232   0.00267   0.00720   0.00398   0.01118   2.89350
    R2        2.07163  -0.00024  -0.00157   0.00033  -0.00124   2.07040
    R3        2.07163  -0.00024  -0.00157   0.00033  -0.00124   2.07040
    R4        2.07163  -0.00024  -0.00157   0.00033  -0.00124   2.07040
    R5        2.07163  -0.00024  -0.00157   0.00033  -0.00124   2.07040
    R6        2.07163  -0.00024  -0.00157   0.00033  -0.00124   2.07040
    R7        2.07163  -0.00024  -0.00157   0.00033  -0.00124   2.07040
    A1        1.94880  -0.00053  -0.00578   0.00036  -0.00546   1.94334
    A2        1.94880  -0.00053  -0.00578   0.00036  -0.00546   1.94334
    A3        1.94880  -0.00053  -0.00578   0.00036  -0.00546   1.94334
    A4        1.87097   0.00058   0.00628  -0.00038   0.00586   1.87683
    A5        1.87097   0.00058   0.00628  -0.00038   0.00586   1.87683
    A6        1.87097   0.00058   0.00628  -0.00038   0.00586   1.87683
    A7        1.94880  -0.00053  -0.00578   0.00036  -0.00546   1.94334
    A8        1.94880  -0.00053  -0.00578   0.00036  -0.00546   1.94334
    A9        1.94880  -0.00053  -0.00578   0.00036  -0.00546   1.94334
   A10        1.87097   0.00058   0.00628  -0.00038   0.00586   1.87683
   A11        1.87097   0.00058   0.00628  -0.00038   0.00586   1.87683
   A12        1.87097   0.00058   0.00628  -0.00038   0.00586   1.87683
    D1        1.04720  -0.00000  -0.00000   0.00000   0.00000   1.04720
    D2        3.14159  -0.00000   0.00000   0.00000   0.00000   3.14159
    D3       -1.04720  -0.00000  -0.00000   0.00000   0.00000  -1.04720
    D4        3.14159   0.00000   0.00000   0.00000   0.00000   3.14159
    D5       -1.04720  -0.00000   0.00000   0.00000   0.00000  -1.04720
    D6        1.04720  -0.00000   0.00000   0.00000   0.00000   1.04720
    D7       -1.04720   0.00000   0.00000   0.00000   0.00000  -1.04720
    D8        1.04720   0.00000  -0.00000   0.00000   0.00000   1.04720
    D9       -3.14159   0.00000  -0.00000   0.00000  -0.00000   3.14159
         Item               Value     Threshold  Converged?
 Maximum Force            0.002669     0.000450     NO 
 RMS     Force            0.000632     0.000300     NO 
 Maximum Displacement     0.005588     0.001800     NO 
 RMS     Displacement     0.003222     0.001200     NO 
 Predicted change in Energy=-3.477234D-05
 GradGradGradGradGradGradGradGradGradGradGradGradGradGradGradGradGradGrad

 Leave Link  103 at Fri Jun 28 11:32:20 2024, MaxMem=   33554432 cpu:       0.0
 (Enter /programs/64bit/g09/g09-gfortran/bin/l202.exe)
                          Input orientation:                          
 ---------------------------------------------------------------------
 Center     Atomic      Atomic             Coordinates (Angstroms)
 Number     Number       Type             X           Y           Z
 ---------------------------------------------------------------------
      1          6           0       -0.000000   -0.000000   -0.065587
      2          6           0       -0.000000   -0.000000    1.465587
      3          1           0        1.020454    0.000000   -0.464367
      4          1           0       -0.510227   -0.883739   -0.464367
      5          1           0       -0.510227    0.883739   -0.464367
      6          1           0        0.510227    0.883739    1.864367
      7          1           0       -1.020454   -0.000000    1.864367
      8          1           0        0.510227   -0.883739    1.864367
 ---------------------------------------------------------------------
                    Distance matrix (angstroms):
                    1          2          3          4          5
     1  C    0.000000
     2  C    1.531173   0.000000
     3  H    1.095606   2.183128   0.000000
     4  H    1.095606   2.183128   1.767478   0.000000
     5  H    1.095606   2.183128   1.767478   1.767478   0.000000
     6  H    2.183128   1.095606   2.542505   3.096500   2.542505
     7  H    2.183128   1.095606   3.096500   2.542505   2.542505
     8  H    2.183128   1.095606   2.542505   2.542505   3.096500
                    6          7          8
     6  H    0.000000
     7  H    1.767478   0.000000
     8  H    1.767478   1.767478   0.000000
 Stoichiometry    C2H6
 Framework group  D3D[C3(C.C),3SGD(H2)]
 Deg. of freedom     3
 Full point group                 D3D     NOp  12
 Largest Abelian subgroup         C2H     NOp   4
 Largest concise Abelian subgroup C2H     NOp   4
                         Standard orientation:                         
 ---------------------------------------------------------------------
 Center     Atomic      Atomic             Coordinates (Angstroms)
 Number     Number       Type             X           Y           Z
 ---------------------------------------------------------------------
      1          6           0        0.000000    0.000000    0.765587
      2          6           0       -0.000000   -0.000000   -0.765587
      3          1           0        0.000000    1.020454    1.164367
      4          1           0       -0.883739   -0.510227    1.164367
      5          1           0        0.883739   -0.510227    1.164367
      6          1           0        0.883739    0.510227   -1.164367
      7          1           0       -0.000000   -1.020454   -1.164367
      8          1           0       -0.883739    0.510227   -1.164367
 ---------------------------------------------------------------------
 Rotational constants (GHZ):     80.2590213     19.8862133     19.8862133
 Leave Link  202 at Fri Jun 28 11:32:20 2024, MaxMem=   33554432 cpu:       0.0
 (Enter /programs/64bit/g09/g09-gfortran/bin/l301.exe)
 Standard basis: 6-31+G(d,p) (6D, 7F)
 Ernie: Thresh=  0.10000D-02 Tol=  0.10000D-05 Strict=F.
 There are    23 symmetry adapted basis functions of AG  symmetry.
 There are    11 symmetry adapted basis functions of BG  symmetry.
 There are    11 symmetry adapted basis functions of AU  symmetry.
 There are    23 symmetry adapted basis functions of BU  symmetry.
 Integral buffers will be    131072 words long.
 Raffenetti 2 integral format.
 Two-electron integral symmetry is turned on.
    68 basis functions,   106 primitive gaussians,    68 cartesian basis functions
     9 alpha electrons        9 beta electrons
       nuclear repulsion energy        42.1137134803 Hartrees.
 IExCor=  402 DFT=T Ex+Corr=B3LYP ExCW=0 ScaHFX=  0.200000
 ScaDFX=  0.800000  0.720000  1.000000  0.810000 ScalE2=  1.000000  1.000000
 IRadAn=      0 IRanWt=     -1 IRanGd=            0 ICorTp=0
 NAtoms=    8 NActive=    8 NUniq=    2 SFac= 3.00D+00 NAtFMM=   80 NAOKFM=F Big=F
 Leave Link  301 at Fri Jun 28 11:32:20 2024, MaxMem=   33554432 cpu:       0.0
 (Enter /programs/64bit/g09/g09-gfortran/bin/l302.exe)
 NPDir=0 NMtPBC=     1 NCelOv=     1 NCel=       1 NClECP=     1 NCelD=      1
         NCelK=      1 NCelE2=     1 NClLst=     1 CellRange=     0.0.
 One-electron integrals computed using PRISM.
 One-electron integral symmetry used in STVInt
 NBasis=    68 RedAO= T  NBF=    23    11    11    23
 NBsUse=    68 1.00D-06 NBFU=    23    11    11    23
 Precomputing XC quadrature grid using
 IXCGrd= 2 IRadAn=           0 IRanWt=          -1 IRanGd=           0 AccXCQ= 1.00D-10.
 NRdTot=     510 NPtTot=       65100 NUsed=       68787 NTot=       68819
 NSgBfM=    68    68    68    68    68 NAtAll=     8     8.
 Leave Link  302 at Fri Jun 28 11:32:20 2024, MaxMem=   33554432 cpu:       0.1
 (Enter /programs/64bit/g09/g09-gfortran/bin/l303.exe)
 DipDrv:  MaxL=1.
 Leave Link  303 at Fri Jun 28 11:32:21 2024, MaxMem=   33554432 cpu:       0.0
 (Enter /programs/64bit/g09/g09-gfortran/bin/l401.exe)
 Initial guess read from the read-write file.
 B after Tr=     0.000000    0.000000    0.000000
         Rot=    1.000000    0.000000    0.000000    0.000000 Ang=   0.00 deg.
 Guess basis will be translated and rotated to current coordinates.
 Initial guess orbital symmetries:
       Occupied  (A1G) (A2U) (A1G) (A2U) (EU) (EU) (A1G) (EG) (EG)
       Virtual   (A1G) (A2U) (EU) (EU) (A1G) (EG) (EG) (A2U) (EG)
                 (EG) (EU) (EU) (A2U) (A1G) (A2U) (A1G) (EU) (EU)
                 (EG) (EG) (A2U) (EU) (EU) (EG) (EG) (A1G) (A2U)
                 (A1G) (EU) (EU) (A2U) (EG) (EG) (A1G) (A1U) (A2G)
                 (EU) (EU) (EG) (EG) (EU) (EU) (A2U) (EG) (EG)
                 (A1G) (EU) (EU) (A2U) (EG) (EG) (A1G) (A2U) (EG)
                 (EG) (EU) (EU) (A1G) (A2U)
 The electronic state of the initial guess is 1-A1G.
 Leave Link  401 at Fri Jun 28 11:32:21 2024, MaxMem=   33554432 cpu:       0.0
 (Enter /programs/64bit/g09/g09-gfortran/bin/l502.exe)
 Closed shell SCF:
 Requested convergence on RMS density matrix=1.00D-08 within 128 cycles.
 Requested convergence on MAX density matrix=1.00D-06.
 Requested convergence on             energy=1.00D-06.
 No special actions if energy rises.
 Using DIIS extrapolation, IDIIS=  1040.
 Integral symmetry usage will be decided dynamically.
        68702 words used for storage of precomputed grid.
 Keep R1 ints in memory in canonical form, NReq=3743695.
 IEnd=      102160 IEndB=      102160 NGot=    33554432 MDV=    30720546
 LenX=    30720546 LenY=    30715481
 Symmetry not used in FoFDir.
 MinBra= 0 MaxBra= 2 Meth= 1.
 IRaf=       0 NMat=   1 IRICut=       1 DoRegI=T DoRafI=F ISym2E= 0 JSym2E=0.

 Cycle   1  Pass 1  IDiag  1:
 E= -79.8416255819263    
 DIIS: error= 4.42D-04 at cycle   1 NSaved=   1.
 NSaved= 1 IEnMin= 1 EnMin= -79.8416255819263     IErMin= 1 ErrMin= 4.42D-04
 ErrMax= 4.42D-04 EMaxC= 1.00D-01 BMatC= 8.88D-06 BMatP= 8.88D-06
 IDIUse=3 WtCom= 9.96D-01 WtEn= 4.42D-03
 Coeff-Com:  0.100D+01
 Coeff-En:   0.100D+01
 Coeff:      0.100D+01
 Gap=     0.362 Goal=   None    Shift=    0.000
 RMSDP=6.44D-05 MaxDP=8.27D-04              OVMax= 1.59D-03

 Cycle   2  Pass 1  IDiag  1:
 E= -79.8416408175227     Delta-E=       -0.000015235596 Rises=F Damp=F
 DIIS: error= 4.06D-05 at cycle   2 NSaved=   2.
 NSaved= 2 IEnMin= 2 EnMin= -79.8416408175227     IErMin= 2 ErrMin= 4.06D-05
 ErrMax= 4.06D-05 EMaxC= 1.00D-01 BMatC= 5.75D-08 BMatP= 8.88D-06
 IDIUse=1 WtCom= 1.00D+00 WtEn= 0.00D+00
 Coeff-Com: -0.544D-01 0.105D+01
 Coeff:     -0.544D-01 0.105D+01
 Gap=     0.362 Goal=   None    Shift=    0.000
 RMSDP=6.19D-06 MaxDP=7.59D-05 DE=-1.52D-05 OVMax= 1.84D-04

 Cycle   3  Pass 1  IDiag  1:
 E= -79.8416409033615     Delta-E=       -0.000000085839 Rises=F Damp=F
 DIIS: error= 1.23D-05 at cycle   3 NSaved=   3.
 NSaved= 3 IEnMin= 3 EnMin= -79.8416409033615     IErMin= 3 ErrMin= 1.23D-05
 ErrMax= 1.23D-05 EMaxC= 1.00D-01 BMatC= 5.46D-09 BMatP= 5.75D-08
 IDIUse=1 WtCom= 1.00D+00 WtEn= 0.00D+00
 Coeff-Com: -0.122D-01 0.206D+00 0.806D+00
 Coeff:     -0.122D-01 0.206D+00 0.806D+00
 Gap=     0.362 Goal=   None    Shift=    0.000
 RMSDP=1.71D-06 MaxDP=2.53D-05 DE=-8.58D-08 OVMax= 3.73D-05

 Cycle   4  Pass 1  IDiag  1:
 E= -79.8416409057785     Delta-E=       -0.000000002417 Rises=F Damp=F
 DIIS: error= 9.34D-06 at cycle   4 NSaved=   4.
 NSaved= 4 IEnMin= 4 EnMin= -79.8416409057785     IErMin= 4 ErrMin= 9.34D-06
 ErrMax= 9.34D-06 EMaxC= 1.00D-01 BMatC= 3.79D-09 BMatP= 5.46D-09
 IDIUse=1 WtCom= 1.00D+00 WtEn= 0.00D+00
 Coeff-Com: -0.286D-02 0.314D-01 0.449D+00 0.522D+00
 Coeff:     -0.286D-02 0.314D-01 0.449D+00 0.522D+00
 Gap=     0.362 Goal=   None    Shift=    0.000
 RMSDP=6.98D-07 MaxDP=1.10D-05 DE=-2.42D-09 OVMax= 1.54D-05

 Cycle   5  Pass 1  IDiag  1:
 E= -79.8416409096790     Delta-E=       -0.000000003900 Rises=F Damp=F
 DIIS: error= 8.95D-08 at cycle   5 NSaved=   5.
 NSaved= 5 IEnMin= 5 EnMin= -79.8416409096790     IErMin= 5 ErrMin= 8.95D-08
 ErrMax= 8.95D-08 EMaxC= 1.00D-01 BMatC= 2.59D-13 BMatP= 3.79D-09
 IDIUse=1 WtCom= 1.00D+00 WtEn= 0.00D+00
 Coeff-Com:  0.166D-03-0.287D-02-0.110D-01-0.147D-01 0.103D+01
 Coeff:      0.166D-03-0.287D-02-0.110D-01-0.147D-01 0.103D+01
 Gap=     0.362 Goal=   None    Shift=    0.000
 RMSDP=2.50D-08 MaxDP=2.65D-07 DE=-3.90D-09 OVMax= 5.68D-07

 Cycle   6  Pass 1  IDiag  1:
 E= -79.8416409096797     Delta-E=       -0.000000000001 Rises=F Damp=F
 DIIS: error= 4.68D-09 at cycle   6 NSaved=   6.
 NSaved= 6 IEnMin= 6 EnMin= -79.8416409096797     IErMin= 6 ErrMin= 4.68D-09
 ErrMax= 4.68D-09 EMaxC= 1.00D-01 BMatC= 9.52D-16 BMatP= 2.59D-13
 IDIUse=1 WtCom= 1.00D+00 WtEn= 0.00D+00
 Coeff-Com:  0.672D-05-0.706D-04-0.918D-03-0.999D-03-0.277D-02 0.100D+01
 Coeff:      0.672D-05-0.706D-04-0.918D-03-0.999D-03-0.277D-02 0.100D+01
 Gap=     0.362 Goal=   None    Shift=    0.000
[...]
 DIIS: error= 7.72D-08 at cycle   5 NSaved=   5.
 NSaved= 5 IEnMin= 5 EnMin= -79.8416414021947     IErMin= 5 ErrMin= 7.72D-08
 ErrMax= 7.72D-08 EMaxC= 1.00D-01 BMatC= 2.46D-13 BMatP= 7.90D-11
 IDIUse=1 WtCom= 1.00D+00 WtEn= 0.00D+00
 Coeff-Com: -0.492D-03-0.622D-04 0.121D-01 0.797D-01 0.909D+00
 Coeff:     -0.492D-03-0.622D-04 0.121D-01 0.797D-01 0.909D+00
 Gap=     0.362 Goal=   None    Shift=    0.000
 RMSDP=8.06D-09 MaxDP=9.67D-08 DE=-8.41D-11 OVMax= 1.69D-07

 SCF Done:  E(RB3LYP) =  -79.8416414022     A.U. after    5 cycles
             Convg  =    0.8060D-08             -V/T =  2.0110
 KE= 7.897140970195D+01 PE=-2.679435137443D+02 EE= 6.702650289425D+01
 Leave Link  502 at Fri Jun 28 11:32:26 2024, MaxMem=   33554432 cpu:       2.1
 (Enter /programs/64bit/g09/g09-gfortran/bin/l701.exe)
 Compute integral first derivatives.
 ... and contract with generalized density number  0.
 Leave Link  701 at Fri Jun 28 11:32:26 2024, MaxMem=   33554432 cpu:       0.2
 (Enter /programs/64bit/g09/g09-gfortran/bin/l702.exe)
 L702 exits ... SP integral derivatives will be done elsewhere.
 Leave Link  702 at Fri Jun 28 11:32:26 2024, MaxMem=   33554432 cpu:       0.0
 (Enter /programs/64bit/g09/g09-gfortran/bin/l703.exe)
 Compute integral first derivatives, UseDBF=F ICtDFT=           0.
 Integral derivatives from FoFDir, PRISM(SPDF).
 Calling FoFJK, ICntrl=      2127 FMM=F ISym2X=1 I1Cent= 0 IOpClX= 0 NMat=1 NMatS=1 NMatT=0.
 FoFCou: FMM=F IPFlag=           0 FMFlag=      100000 FMFlg1=         800
         NFxFlg=           0 DoJE=F BraDBF=F KetDBF=F FulRan=T
         Omega=  0.000000  0.000000  1.000000  0.000000  0.000000 ICntrl=    2127 IOpCl=  0
         NMat0=    1 NMatS0=    1 NMatT0=    0 NMatD0=    1 NMtDS0=    0 NMtDT0=    0
         I1Cent=           0 NGrid=           0.
 Petite list used in FoFCou.
 Leave Link  703 at Fri Jun 28 11:32:28 2024, MaxMem=   33554432 cpu:       1.5
 (Enter /programs/64bit/g09/g09-gfortran/bin/l716.exe)
 Dipole        = 0.00000000D+00 1.11022302D-16 8.88178420D-16
 ***** Axes restored to original set *****
 -------------------------------------------------------------------
 Center     Atomic                   Forces (Hartrees/Bohr)
 Number     Number              X              Y              Z
 -------------------------------------------------------------------
      1        6           0.000000000   -0.000000000   -0.000057319
      2        6          -0.000000000    0.000000000    0.000057319
      3        1           0.000000785    0.000000000   -0.000017587
      4        1          -0.000000393   -0.000000680   -0.000017587
      5        1          -0.000000393    0.000000680   -0.000017587
      6        1           0.000000393    0.000000680    0.000017587
      7        1          -0.000000785    0.000000000    0.000017587
      8        1           0.000000393   -0.000000680    0.000017587
 -------------------------------------------------------------------
 Cartesian Forces:  Max     0.000057319 RMS     0.000018742
 Leave Link  716 at Fri Jun 28 11:32:28 2024, MaxMem=   33554432 cpu:       0.0
 (Enter /programs/64bit/g09/g09-gfortran/bin/l103.exe)

 GradGradGradGradGradGradGradGradGradGradGradGradGradGradGradGradGradGrad
 Berny optimization.
 Using GEDIIS/GDIIS optimizer.
 Internal  Forces:  Max     0.000110082 RMS     0.000023558
 Search for a local minimum.
 Step number   5 out of a maximum of   38
 All quantities printed in internal units (Hartrees-Bohrs-Radians)
 RMS Force = .23558D-04 SwitMx=.10000D-02 MixMth= 2
 Mixed Optimization -- En-DIIS/RFO-DIIS
 Swaping is turned off.
 Update second derivatives using D2CorX and points    1    2    3    4    5
 DE= -4.93D-07 DEPred=-4.08D-07 R= 1.21D+00
 Trust test= 1.21D+00 RLast= 1.48D-03 DXMaxT set to 5.05D-01
     Eigenvalues ---    0.02089   0.06621   0.06621   0.06621   0.06621
     Eigenvalues ---    0.12660   0.16000   0.16000   0.16000   0.16000
     Eigenvalues ---    0.16000   0.30140   0.33682   0.33682   0.33682
     Eigenvalues ---    0.33682   0.33682   0.337681000.000001000.00000
     Eigenvalues --- 1000.000001000.000001000.000001000.000001000.00000
     Eigenvalues --- 1000.000001000.000001000.00000
 En-DIIS/RFO-DIIS IScMMF=        0 using points:     5    4    3
 RFO step:  Lambda=-2.83739968D-08.
 DIIS coeffs:      1.31581     -0.32763      0.01182
 Iteration  1 RMS(Cart)=  0.00015628 RMS(Int)=  0.00000011
 Iteration  2 RMS(Cart)=  0.00000000 RMS(Int)=  0.00000010
 ClnCor:  largest displacement from symmetrization is 2.61D-09 for atom     5.
 Variable       Old X    -DE/DX   Delta X   Delta X   Delta X     New X
                                  (DIIS)     (GDIIS)  (Total)
    R1        2.89497   0.00011   0.00033   0.00000   0.00033   2.89530
    R2        2.07040   0.00001   0.00002   0.00000   0.00002   2.07042
    R3        2.07040   0.00001   0.00002   0.00000   0.00002   2.07042
    R4        2.07040   0.00001   0.00002   0.00000   0.00002   2.07042
    R5        2.07040   0.00001   0.00002   0.00000   0.00002   2.07042
    R6        2.07040   0.00001   0.00002   0.00000   0.00002   2.07042
    R7        2.07040   0.00001   0.00002   0.00000   0.00002   2.07042
    A1        1.94337   0.00002   0.00008  -0.00000   0.00008   1.94345
    A2        1.94337   0.00002   0.00008  -0.00000   0.00008   1.94345
    A3        1.94337   0.00002   0.00008  -0.00000   0.00008   1.94345
    A4        1.87679  -0.00002  -0.00008   0.00000  -0.00008   1.87670
    A5        1.87679  -0.00002  -0.00008   0.00000  -0.00008   1.87670
    A6        1.87679  -0.00002  -0.00008   0.00000  -0.00008   1.87670
    A7        1.94337   0.00002   0.00008  -0.00000   0.00008   1.94345
    A8        1.94337   0.00002   0.00008  -0.00000   0.00008   1.94345
    A9        1.94337   0.00002   0.00008  -0.00000   0.00008   1.94345
   A10        1.87679  -0.00002  -0.00008   0.00000  -0.00008   1.87670
   A11        1.87679  -0.00002  -0.00008   0.00000  -0.00008   1.87670
   A12        1.87679  -0.00002  -0.00008   0.00000  -0.00008   1.87670
    D1        1.04720  -0.00000   0.00000  -0.00000   0.00000   1.04720
    D2        3.14159  -0.00000   0.00000  -0.00000   0.00000   3.14159
    D3       -1.04720  -0.00000  -0.00000  -0.00000   0.00000  -1.04720
    D4        3.14159  -0.00000   0.00000  -0.00000   0.00000   3.14159
    D5       -1.04720  -0.00000   0.00000  -0.00000   0.00000  -1.04720
    D6        1.04720  -0.00000   0.00000  -0.00000   0.00000   1.04720
    D7       -1.04720   0.00000   0.00000  -0.00000   0.00000  -1.04720
    D8        1.04720  -0.00000   0.00000  -0.00000   0.00000   1.04720
    D9        3.14159   0.00000   0.00000  -0.00000   0.00000  -3.14159
         Item               Value     Threshold  Converged?
 Maximum Force            0.000110     0.000450     YES
 RMS     Force            0.000024     0.000300     YES
 Maximum Displacement     0.000321     0.001800     YES
 RMS     Displacement     0.000156     0.001200     YES
 Predicted change in Energy=-2.605941D-08
 Optimization completed.
    -- Stationary point found.
                           ----------------------------
                           !   Optimized Parameters   !
                           ! (Angstroms and Degrees)  !
 --------------------------                            --------------------------
 ! Name  Definition              Value          Derivative Info.                !
 --------------------------------------------------------------------------------
 ! R1    R(1,2)                  1.532          -DE/DX =    0.0001              !
 ! R2    R(1,3)                  1.0956         -DE/DX =    0.0                 !
 ! R3    R(1,4)                  1.0956         -DE/DX =    0.0                 !
 ! R4    R(1,5)                  1.0956         -DE/DX =    0.0                 !
 ! R5    R(2,6)                  1.0956         -DE/DX =    0.0                 !
 ! R6    R(2,7)                  1.0956         -DE/DX =    0.0                 !
 ! R7    R(2,8)                  1.0956         -DE/DX =    0.0                 !
 ! A1    A(2,1,3)              111.3472         -DE/DX =    0.0                 !
 ! A2    A(2,1,4)              111.3472         -DE/DX =    0.0                 !
 ! A3    A(2,1,5)              111.3472         -DE/DX =    0.0                 !
 ! A4    A(3,1,4)              107.5319         -DE/DX =    0.0                 !
 ! A5    A(3,1,5)              107.5319         -DE/DX =    0.0                 !
 ! A6    A(4,1,5)              107.5319         -DE/DX =    0.0                 !
 ! A7    A(1,2,6)              111.3472         -DE/DX =    0.0                 !
 ! A8    A(1,2,7)              111.3472         -DE/DX =    0.0                 !
 ! A9    A(1,2,8)              111.3472         -DE/DX =    0.0                 !
 ! A10   A(6,2,7)              107.5319         -DE/DX =    0.0                 !
 ! A11   A(6,2,8)              107.5319         -DE/DX =    0.0                 !
 ! A12   A(7,2,8)              107.5319         -DE/DX =    0.0                 !
 ! D1    D(3,1,2,6)             60.0            -DE/DX =    0.0                 !
 ! D2    D(3,1,2,7)            180.0            -DE/DX =    0.0                 !
 ! D3    D(3,1,2,8)            -60.0            -DE/DX =    0.0                 !
 ! D4    D(4,1,2,6)            180.0            -DE/DX =    0.0                 !
 ! D5    D(4,1,2,7)            -60.0            -DE/DX =    0.0                 !
 ! D6    D(4,1,2,8)             60.0            -DE/DX =    0.0                 !
 ! D7    D(5,1,2,6)            -60.0            -DE/DX =    0.0                 !
 ! D8    D(5,1,2,7)             60.0            -DE/DX =    0.0                 !
 ! D9    D(5,1,2,8)           -180.0            -DE/DX =    0.0                 !
 --------------------------------------------------------------------------------
 GradGradGradGradGradGradGradGradGradGradGradGradGradGradGradGradGradGrad

 Largest change from initial coordinates is atom    3       0.108 Angstoms.
 Leave Link  103 at Fri Jun 28 11:32:28 2024, MaxMem=   33554432 cpu:       0.0
 (Enter /programs/64bit/g09/g09-gfortran/bin/l202.exe)
                          Input orientation:                          
 ---------------------------------------------------------------------
 Center     Atomic      Atomic             Coordinates (Angstroms)
 Number     Number       Type             X           Y           Z
 ---------------------------------------------------------------------
      1          6           0       -0.000000   -0.000000   -0.065976
      2          6           0       -0.000000   -0.000000    1.465976
      3          1           0        1.020443    0.000000   -0.464798
      4          1           0       -0.510222   -0.883730   -0.464798
      5          1           0       -0.510222    0.883730   -0.464798
      6          1           0        0.510222    0.883730    1.864798
      7          1           0       -1.020443   -0.000000    1.864798
      8          1           0        0.510222   -0.883730    1.864798
 ---------------------------------------------------------------------
                    Distance matrix (angstroms):
                    1          2          3          4          5
     1  C    0.000000
     2  C    1.531952   0.000000
     3  H    1.095611   2.183849   0.000000
     4  H    1.095611   2.183849   1.767459   0.000000
     5  H    1.095611   2.183849   1.767459   1.767459   0.000000
     6  H    2.183849   1.095611   2.543290   3.097134   2.543290
     7  H    2.183849   1.095611   3.097134   2.543290   2.543290
     8  H    2.183849   1.095611   2.543290   2.543290   3.097134
                    6          7          8
     6  H    0.000000
     7  H    1.767459   0.000000
     8  H    1.767459   1.767459   0.000000
 Stoichiometry    C2H6
 Framework group  D3D[C3(C.C),3SGD(H2)]
 Deg. of freedom     3
 Full point group                 D3D     NOp  12
 Largest Abelian subgroup         C2H     NOp   4
 Largest concise Abelian subgroup C2H     NOp   4
                         Standard orientation:                         
 ---------------------------------------------------------------------
 Center     Atomic      Atomic             Coordinates (Angstroms)
 Number     Number       Type             X           Y           Z
 ---------------------------------------------------------------------
      1          6           0        0.000000    0.000000    0.765976
      2          6           0       -0.000000   -0.000000   -0.765976
      3          1           0        0.000000    1.020443    1.164798
      4          1           0       -0.883730   -0.510222    1.164798
      5          1           0        0.883730   -0.510222    1.164798
      6          1           0        0.883730    0.510222   -1.164798
      7          1           0       -0.000000   -1.020443   -1.164798
      8          1           0       -0.883730    0.510222   -1.164798
 ---------------------------------------------------------------------
 Rotational constants (GHZ):     80.2607425     19.8703256     19.8703256
 Leave Link  202 at Fri Jun 28 11:32:28 2024, MaxMem=   33554432 cpu:       0.0
 (Enter /programs/64bit/g09/g09-gfortran/bin/l601.exe)
 Copying SCF densities to generalized density rwf, IOpCl= 0 IROHF=0.

 **********************************************************************

            Population analysis using the SCF density.

 **********************************************************************

 Orbital symmetries:
       Occupied  (A1G) (A2U) (A1G) (A2U) (EU) (EU) (A1G) (EG) (EG)
       Virtual   (A1G) (A2U) (EU) (EU) (A1G) (EG) (EG) (A2U) (EG)
                 (EG) (EU) (EU) (A2U) (A1G) (A2U) (A1G) (EU) (EU)
                 (EG) (EG) (A2U) (EU) (EU) (EG) (EG) (A1G) (A2U)
                 (A1G) (EU) (EU) (A2U) (EG) (EG) (A1G) (A1U) (A2G)
                 (EU) (EU) (EG) (EG) (EU) (EU) (A2U) (EG) (EG)
                 (A1G) (A2U) (EU) (EU) (EG) (EG) (A1G) (A2U) (EG)
                 (EG) (EU) (EU) (A1G) (A2U)
 The electronic state is 1-A1G.
 Alpha  occ. eigenvalues --  -10.17805 -10.17784  -0.75305  -0.61714  -0.43472
 Alpha  occ. eigenvalues --   -0.43472  -0.36861  -0.34447  -0.34447
 Alpha virt. eigenvalues --    0.01748   0.03029   0.05368   0.05368   0.08039
 Alpha virt. eigenvalues --    0.08966   0.08966   0.14269   0.19586   0.19586
 Alpha virt. eigenvalues --    0.19781   0.19781   0.25508   0.29763   0.32689
 Alpha virt. eigenvalues --    0.61973   0.64292   0.64292   0.67015   0.67015
 Alpha virt. eigenvalues --    0.69625   0.91552   0.91552   0.96763   0.96763
 Alpha virt. eigenvalues --    1.00306   1.09971   1.10989   1.32475   1.32475
 Alpha virt. eigenvalues --    1.45977   1.67317   1.67317   1.89007   2.05216
 Alpha virt. eigenvalues --    2.05260   2.09989   2.09989   2.11300   2.11300
 Alpha virt. eigenvalues --    2.26462   2.26462   2.38216   2.47414   2.47414
 Alpha virt. eigenvalues --    2.69155   2.78757   2.79682   2.79682   2.89987
 Alpha virt. eigenvalues --    2.89987   3.21072   3.26076   3.39148   3.39148
 Alpha virt. eigenvalues --    3.51683   3.51683   4.32941   4.58102
          Condensed to atoms (all electrons):
              1          2          3          4          5          6
     1  C    5.086594   0.268471   0.404278   0.404278   0.404278  -0.044531
     2  C    0.268471   5.086594  -0.044531  -0.044531  -0.044531   0.404278
     3  H    0.404278  -0.044531   0.558498  -0.029642  -0.029642  -0.004109
     4  H    0.404278  -0.044531  -0.029642   0.558498  -0.029642   0.004489
     5  H    0.404278  -0.044531  -0.029642  -0.029642   0.558498  -0.004109
     6  H   -0.044531   0.404278  -0.004109   0.004489  -0.004109   0.558498
     7  H   -0.044531   0.404278   0.004489  -0.004109  -0.004109  -0.029642
     8  H   -0.044531   0.404278  -0.004109  -0.004109   0.004489  -0.029642
              7          8
     1  C   -0.044531  -0.044531
     2  C    0.404278   0.404278
     3  H    0.004489  -0.004109
     4  H   -0.004109  -0.004109
     5  H   -0.004109   0.004489
     6  H   -0.029642  -0.029642
     7  H    0.558498  -0.029642
     8  H   -0.029642   0.558498
 Mulliken atomic charges:
              1
     1  C   -0.434304
     2  C   -0.434304
     3  H    0.144768
     4  H    0.144768
     5  H    0.144768
     6  H    0.144768
     7  H    0.144768
     8  H    0.144768
 Sum of Mulliken atomic charges =  -0.00000
 Mulliken charges with hydrogens summed into heavy atoms:
              1
     1  C   -0.000000
     2  C   -0.000000
 Sum of Mulliken charges with hydrogens summed into heavy atoms =  -0.00000
 Electronic spatial extent (au):  <R**2>=            110.6613
 Charge=             -0.0000 electrons
 Dipole moment (field-independent basis, Debye):
    X=              0.0000    Y=              0.0000    Z=              0.0000  Tot=              0.0000
 Quadrupole moment (field-independent basis, Debye-Ang):
   XX=            -15.0764   YY=            -15.0764   ZZ=            -15.7627
   XY=             -0.0000   XZ=              0.0000   YZ=              0.0000
 Traceless Quadrupole moment (field-independent basis, Debye-Ang):
   XX=              0.2288   YY=              0.2288   ZZ=             -0.4575
   XY=             -0.0000   XZ=              0.0000   YZ=              0.0000
 Octapole moment (field-independent basis, Debye-Ang**2):
  XXX=              0.0000  YYY=              0.0000  ZZZ=              0.0000  XYY=              0.0000
  XXY=              0.0000  XXZ=              0.0000  XZZ=              0.0000  YZZ=             -0.0000
  YYZ=             -0.0000  XYZ=              0.0000
 Hexadecapole moment (field-independent basis, Debye-Ang**3):
 XXXX=            -31.3590 YYYY=            -31.3590 ZZZZ=            -98.9436 XXXY=              0.0000
 XXXZ=              0.0000 YYYX=              0.0000 YYYZ=              1.2774 ZZZX=              0.0000
 ZZZY=              0.0000 XXYY=            -10.4530 XXZZ=            -20.6970 YYZZ=            -20.6970
 XXYZ=             -1.2774 YYXZ=              0.0000 ZZXY=             -0.0000
 N-N= 4.210395974592D+01 E-N=-2.679435149154D+02  KE= 7.897140970195D+01
 Symmetry AG   KE= 3.891729738721D+01
 Symmetry BG   KE= 2.079299582092D+00
 Symmetry AU   KE= 1.806838785400D+00
 Symmetry BU   KE= 3.616797394725D+01
 No NMR shielding tensors so no spin-rotation constants.
 Leave Link  601 at Fri Jun 28 11:32:28 2024, MaxMem=   33554432 cpu:       0.1
 (Enter /programs/64bit/g09/g09-gfortran/bin/l9999.exe)
 B after Tr=     0.000000    0.000000    1.322808
         Rot=    0.000000    0.707107    0.707107   -0.000000 Ang= 180.00 deg.
 Final structure in terms of initial Z-matrix:
 C
 C,1,d1
 H,1,d2,2,a1
 H,1,d3,2,a2,3,t1,0
 H,1,d4,2,a3,3,t2,0
 H,2,d5,1,a4,3,t3,0
 H,2,d6,1,a5,6,t4,0
 H,2,d7,1,a6,6,t5,0
      Variables:
 d1=1.53195226
 d2=1.095611
 d3=1.095611
 d4=1.095611
 d5=1.095611
 d6=1.095611
 d7=1.095611
 a1=111.34717183
 a2=111.34717183
 a3=111.34717183
 a4=111.34717183
 a5=111.34717183
 a6=111.34717183
 t1=120.
 t2=-120.
 t3=60.
 t4=120.
 t5=-120.
 1\1\GINC-MOLMOD\FOpt\RB3LYP\6-31+G(d,p)\C2H6\OSPITE\28-Jun-2024\0\\#p 
 B3LYP/6-31+g(d,p) opt out=wfn\\etano\\0,1\C,0.,0.,-0.0659761319\C,0.,0
 .,1.4659761319\H,1.0204431498,0.,-0.4647984449\H,-0.5102215749,-0.8837
 296909,-0.4647984449\H,-0.5102215749,0.8837296909,-0.4647984449\H,0.51
 02215749,0.8837296909,1.8647984449\H,-1.0204431498,0.,1.8647984449\H,0
 .5102215749,-0.8837296909,1.8647984449\\Version=EM64L-G09RevA.02\State
 =1-A1G\HF=-79.8416414\RMSD=8.060e-09\RMSF=1.874e-05\Dipole=0.,0.,0.\Qu
 adrupole=0.170084,0.170084,-0.3401679,0.,0.,0.\PG=D03D [C3(C1.C1),3SGD
 (H2)]\\@

 Writing a WFN file to ethene.wfn.


 MUD THROWN IS GROUND LOST -- FROM A TEA BAG
 Job cpu time:  0 days  0 hours  0 minutes 19.6 seconds.
 File lengths (MBytes):  RWF=      5 Int=      0 D2E=      0 Chk=      1 Scr=      1
 Normal termination of Gaussian 09 at Fri Jun 28 11:32:28 2024.
