 etano                                                   
GAUSSIAN              9 MOL ORBITALS    106 PRIMITIVES        8 NUCLEI
  C    1    (CENTRE  1)  -0.00000000  0.00000000  1.44748511  CHARGE =  6.0
  C    2    (CENTRE  2)  -0.00000000 -0.00000000 -1.44748511  CHARGE =  6.0
  H    3    (CENTRE  3)  -0.00000000  1.92835809  2.20115006  CHARGE =  1.0
  H    4    (CENTRE  4)  -1.67000709 -0.96417904  2.20115006  CHARGE =  1.0
  H    5    (CENTRE  5)   1.67000709 -0.96417904  2.20115006  CHARGE =  1.0
  H    6    (CENTRE  6)   1.67000709  0.96417904 -2.20115006  CHARGE =  1.0
  H    7    (CENTRE  7)  -0.00000000 -1.92835809 -2.20115006  CHARGE =  1.0
  H    8    (CENTRE  8)  -1.67000709  0.96417904 -2.20115006  CHARGE =  1.0
CENTRE ASSIGNMENTS    1  1  1  1  1  1  1  1  1  1  1  1  1  1  1  1  1  1  1  1
CENTRE ASSIGNMENTS    1  1  1  1  1  1  1  1  1  1  1  1  2  2  2  2  2  2  2  2
CENTRE ASSIGNMENTS    2  2  2  2  2  2  2  2  2  2  2  2  2  2  2  2  2  2  2  2
CENTRE ASSIGNMENTS    2  2  2  2  3  3  3  3  3  3  3  4  4  4  4  4  4  4  5  5
CENTRE ASSIGNMENTS    5  5  5  5  5  6  6  6  6  6  6  6  7  7  7  7  7  7  7  8
CENTRE ASSIGNMENTS    8  8  8  8  8  8
TYPE ASSIGNMENTS      1  1  1  1  1  1  1  1  1  2  2  2  3  3  3  4  4  4  1  2
TYPE ASSIGNMENTS      3  4  1  2  3  4  5  6  7  8  9 10  1  1  1  1  1  1  1  1
TYPE ASSIGNMENTS      1  2  2  2  3  3  3  4  4  4  1  2  3  4  1  2  3  4  5  6
TYPE ASSIGNMENTS      7  8  9 10  1  1  1  1  2  3  4  1  1  1  1  2  3  4  1  1
TYPE ASSIGNMENTS      1  1  2  3  4  1  1  1  1  2  3  4  1  1  1  1  2  3  4  1
TYPE ASSIGNMENTS      1  1  1  2  3  4
EXPONENTS  0.3047525D+04 0.4573695D+03 0.1039487D+03 0.2921016D+02 0.9286663D+01
EXPONENTS  0.3163927D+01 0.7868272D+01 0.1881289D+01 0.5442493D+00 0.7868272D+01
EXPONENTS  0.1881289D+01 0.5442493D+00 0.7868272D+01 0.1881289D+01 0.5442493D+00
EXPONENTS  0.7868272D+01 0.1881289D+01 0.5442493D+00 0.1687145D+00 0.1687145D+00
EXPONENTS  0.1687145D+00 0.1687145D+00 0.4380000D-01 0.4380000D-01 0.4380000D-01
EXPONENTS  0.4380000D-01 0.8000000D+00 0.8000000D+00 0.8000000D+00 0.8000000D+00
EXPONENTS  0.8000000D+00 0.8000000D+00 0.3047525D+04 0.4573695D+03 0.1039487D+03
EXPONENTS  0.2921016D+02 0.9286663D+01 0.3163927D+01 0.7868272D+01 0.1881289D+01
EXPONENTS  0.5442493D+00 0.7868272D+01 0.1881289D+01 0.5442493D+00 0.7868272D+01
EXPONENTS  0.1881289D+01 0.5442493D+00 0.7868272D+01 0.1881289D+01 0.5442493D+00
EXPONENTS  0.1687145D+00 0.1687145D+00 0.1687145D+00 0.1687145D+00 0.4380000D-01
EXPONENTS  0.4380000D-01 0.4380000D-01 0.4380000D-01 0.8000000D+00 0.8000000D+00
EXPONENTS  0.8000000D+00 0.8000000D+00 0.8000000D+00 0.8000000D+00 0.1873114D+02
EXPONENTS  0.2825394D+01 0.6401217D+00 0.1612778D+00 0.1100000D+01 0.1100000D+01
EXPONENTS  0.1100000D+01 0.1873114D+02 0.2825394D+01 0.6401217D+00 0.1612778D+00
EXPONENTS  0.1100000D+01 0.1100000D+01 0.1100000D+01 0.1873114D+02 0.2825394D+01
EXPONENTS  0.6401217D+00 0.1612778D+00 0.1100000D+01 0.1100000D+01 0.1100000D+01
EXPONENTS  0.1873114D+02 0.2825394D+01 0.6401217D+00 0.1612778D+00 0.1100000D+01
EXPONENTS  0.1100000D+01 0.1100000D+01 0.1873114D+02 0.2825394D+01 0.6401217D+00
EXPONENTS  0.1612778D+00 0.1100000D+01 0.1100000D+01 0.1100000D+01 0.1873114D+02
EXPONENTS  0.2825394D+01 0.6401217D+00 0.1612778D+00 0.1100000D+01 0.1100000D+01
EXPONENTS  0.1100000D+01
MO    1     MO 0.0        OCC NO =    2.0000000  ORB. ENERGY =  -10.178051
  0.37653607D+00  0.69463552D+00  0.11213571D+01  0.14596738D+01  0.12455423D+01
  0.43005582D+00 -0.14005691D-01 -0.64552101D-02  0.18101083D-01  0.00000000D+00
  0.00000000D+00  0.00000000D+00 -0.15417212D-15 -0.11820940D-15 -0.58994776D-16
  0.15335590D-03  0.11758358D-03  0.58682447D-04 -0.17386742D-02  0.00000000D+00
 -0.13765764D-16 -0.14011569D-03 -0.31296983D-04  0.00000000D+00  0.50785674D-17
 -0.63505971D-05 -0.71301083D-02 -0.71301083D-02 -0.75233003D-02  0.00000000D+00
  0.00000000D+00 -0.40534809D-15  0.37653607D+00  0.69463552D+00  0.11213571D+01
  0.14596738D+01  0.12455423D+01  0.43005582D+00 -0.14005691D-01 -0.64552101D-02
  0.18101083D-01  0.00000000D+00  0.00000000D+00  0.00000000D+00  0.15417212D-15
  0.11820940D-15  0.58994776D-16 -0.15335590D-03 -0.11758358D-03 -0.58682447D-04
 -0.17386742D-02  0.00000000D+00  0.13765764D-16  0.14011569D-03 -0.31296983D-04
  0.00000000D+00 -0.50785674D-17  0.63505971D-05 -0.71301083D-02 -0.71301083D-02
 -0.75233003D-02  0.00000000D+00  0.00000000D+00 -0.40534809D-15 -0.52790395D-04
 -0.89542502D-04 -0.10194097D-03  0.41960102D-03  0.00000000D+00  0.14743131D-03
 -0.91073787D-05 -0.52790395D-04 -0.89542502D-04 -0.10194097D-03  0.41960102D-03
 -0.12767926D-03 -0.73715654D-04 -0.91073787D-05 -0.52790395D-04 -0.89542502D-04
 -0.10194097D-03  0.41960102D-03  0.12767926D-03 -0.73715654D-04 -0.91073787D-05
 -0.52790395D-04 -0.89542502D-04 -0.10194097D-03  0.41960102D-03  0.12767926D-03
  0.73715654D-04  0.91073787D-05 -0.52790395D-04 -0.89542502D-04 -0.10194097D-03
  0.41960102D-03  0.00000000D+00 -0.14743131D-03  0.91073787D-05 -0.52790395D-04
 -0.89542502D-04 -0.10194097D-03  0.41960102D-03 -0.12767926D-03  0.73715654D-04
  0.91073787D-05
MO    2     MO 0.0        OCC NO =    2.0000000  ORB. ENERGY =  -10.177842
  0.37663575D+00  0.69481941D+00  0.11216540D+01  0.14600602D+01  0.12458720D+01
  0.43016967D+00 -0.14162819D-01 -0.65276302D-02  0.18304156D-01  0.00000000D+00
  0.00000000D+00  0.00000000D+00 -0.26532086D-15 -0.20343121D-15 -0.10152643D-15
 -0.98666081D-04 -0.75650893D-04 -0.37755098D-04 -0.30306302D-02  0.00000000D+00
 -0.12177607D-15  0.39407066D-03 -0.10745447D-03  0.00000000D+00 -0.43187757D-17
  0.16773509D-05 -0.68540807D-02 -0.68540807D-02 -0.68311452D-02  0.00000000D+00
  0.00000000D+00 -0.40555380D-15 -0.37663575D+00 -0.69481941D+00 -0.11216540D+01
 -0.14600602D+01 -0.12458720D+01 -0.43016967D+00  0.14162819D-01  0.65276302D-02
 -0.18304156D-01  0.00000000D+00  0.00000000D+00  0.00000000D+00 -0.26532086D-15
 -0.20343121D-15 -0.10152643D-15 -0.98666081D-04 -0.75650893D-04 -0.37755098D-04
  0.30306302D-02  0.00000000D+00 -0.12177607D-15  0.39407066D-03  0.10745447D-03
  0.00000000D+00 -0.43187757D-17  0.16773509D-05  0.68540807D-02  0.68540807D-02
  0.68311452D-02  0.00000000D+00  0.00000000D+00  0.40555380D-15 -0.43328256D-05
 -0.73492923D-05 -0.83669096D-05  0.41029367D-03  0.00000000D+00  0.24561046D-03
  0.31663372D-04 -0.43328256D-05 -0.73492923D-05 -0.83669096D-05  0.41029367D-03
 -0.21270490D-03 -0.12280523D-03  0.31663372D-04 -0.43328256D-05 -0.73492923D-05
 -0.83669096D-05  0.41029367D-03  0.21270490D-03 -0.12280523D-03  0.31663372D-04
  0.43328256D-05  0.73492923D-05  0.83669096D-05 -0.41029367D-03 -0.21270490D-03
 -0.12280523D-03  0.31663372D-04  0.43328256D-05  0.73492923D-05  0.83669096D-05
 -0.41029367D-03  0.00000000D+00  0.24561046D-03  0.31663372D-04  0.43328256D-05
  0.73492923D-05  0.83669096D-05 -0.41029367D-03  0.21270490D-03 -0.12280523D-03
  0.31663372D-04
MO    3     MO 0.0        OCC NO =    2.0000000  ORB. ENERGY =   -0.753050
 -0.80080842D-01 -0.14773352D+00 -0.23848770D+00 -0.31044013D+00 -0.26489912D+00
 -0.91463301D-01 -0.11420193D+00 -0.52635565D-01  0.14759562D+00  0.00000000D+00
  0.00000000D+00  0.00000000D+00  0.31815637D-15  0.24394213D-15  0.12174422D-15
 -0.76472916D-01 -0.58634581D-01 -0.29262766D-01  0.45132834D-01  0.00000000D+00
  0.15896216D-15 -0.12078799D-02  0.53032351D-03  0.00000000D+00  0.81145110D-16
  0.15292629D-04 -0.10364743D-01 -0.10364743D-01  0.28614615D-02  0.00000000D+00
  0.00000000D+00 -0.36696132D-15 -0.80080842D-01 -0.14773352D+00 -0.23848770D+00
 -0.31044013D+00 -0.26489912D+00 -0.91463301D-01 -0.11420193D+00 -0.52635565D-01
  0.14759562D+00  0.00000000D+00  0.00000000D+00  0.00000000D+00 -0.31815637D-15
 -0.24394213D-15 -0.12174422D-15  0.76472916D-01  0.58634581D-01  0.29262766D-01
  0.45132834D-01  0.00000000D+00 -0.15896216D-15  0.12078799D-02  0.53032351D-03
  0.00000000D+00 -0.81145110D-16 -0.15292629D-04 -0.10364743D-01 -0.10364743D-01
  0.28614615D-02  0.00000000D+00  0.00000000D+00 -0.36696132D-15  0.18924042D-01
  0.32098757D-01  0.36543300D-01  0.28898424D-02  0.00000000D+00 -0.12964325D-01
 -0.62278867D-02  0.18924042D-01  0.32098757D-01  0.36543300D-01  0.28898424D-02
  0.11227435D-01  0.64821625D-02 -0.62278867D-02  0.18924042D-01  0.32098757D-01
  0.36543300D-01  0.28898424D-02 -0.11227435D-01  0.64821625D-02 -0.62278867D-02
  0.18924042D-01  0.32098757D-01  0.36543300D-01  0.28898424D-02 -0.11227435D-01
 -0.64821625D-02  0.62278867D-02  0.18924042D-01  0.32098757D-01  0.36543300D-01
  0.28898424D-02  0.00000000D+00  0.12964325D-01  0.62278867D-02  0.18924042D-01
  0.32098757D-01  0.36543300D-01  0.28898424D-02  0.11227435D-01 -0.64821625D-02
  0.62278867D-02
MO    4     MO 0.0        OCC NO =    2.0000000  ORB. ENERGY =   -0.617144
 -0.69974830D-01 -0.12908990D+00 -0.20839112D+00 -0.27126332D+00 -0.23146948D+00
 -0.79920850D-01 -0.10324184D+00 -0.47584068D-01  0.13343069D+00  0.00000000D+00
  0.00000000D+00  0.00000000D+00 -0.27255094D-14 -0.20897477D-14 -0.10429306D-14
  0.16524046D+00  0.12669591D+00  0.63230137D-01  0.50770896D-01  0.00000000D+00
 -0.57438407D-15  0.49199080D-02  0.29189186D-02  0.00000000D+00 -0.58313667D-17
 -0.14522785D-03 -0.22761121D-02 -0.22761121D-02 -0.19097180D-01  0.00000000D+00
  0.00000000D+00 -0.31872606D-16  0.69974830D-01  0.12908990D+00  0.20839112D+00
  0.27126332D+00  0.23146948D+00  0.79920850D-01  0.10324184D+00  0.47584068D-01
 -0.13343069D+00  0.00000000D+00  0.00000000D+00  0.00000000D+00 -0.27255094D-14
 -0.20897477D-14 -0.10429306D-14  0.16524046D+00  0.12669591D+00  0.63230137D-01
 -0.50770896D-01  0.00000000D+00 -0.57438407D-15  0.49199080D-02 -0.29189186D-02
  0.00000000D+00 -0.58313667D-17 -0.14522785D-03  0.22761121D-02  0.22761121D-02
  0.19097180D-01  0.00000000D+00  0.00000000D+00  0.31872606D-16  0.25813690D-01
  0.43784903D-01  0.49847565D-01  0.79005137D-02  0.00000000D+00 -0.15004051D-01
 -0.27816543D-02  0.25813690D-01  0.43784903D-01  0.49847565D-01  0.79005137D-02
  0.12993889D-01  0.75020253D-02 -0.27816543D-02  0.25813690D-01  0.43784903D-01
  0.49847565D-01  0.79005137D-02 -0.12993889D-01  0.75020253D-02 -0.27816543D-02
 -0.25813690D-01 -0.43784903D-01 -0.49847565D-01 -0.79005137D-02  0.12993889D-01
  0.75020253D-02 -0.27816543D-02 -0.25813690D-01 -0.43784903D-01 -0.49847565D-01
 -0.79005137D-02  0.00000000D+00 -0.15004051D-01 -0.27816543D-02 -0.25813690D-01
 -0.43784903D-01 -0.49847565D-01 -0.79005137D-02 -0.12993889D-01  0.75020253D-02
 -0.27816543D-02
MO    5     MO 0.0        OCC NO =    2.0000000  ORB. ENERGY =   -0.434720
  0.00000000D+00  0.00000000D+00  0.00000000D+00  0.00000000D+00  0.00000000D+00
  0.00000000D+00 -0.00000000D+00 -0.00000000D+00  0.00000000D+00  0.41194699D+00
  0.31585482D+00  0.15763369D+00  0.00000000D+00  0.00000000D+00  0.00000000D+00
  0.00000000D+00  0.00000000D+00  0.00000000D+00  0.00000000D+00  0.21329742D-01
  0.00000000D+00  0.00000000D+00  0.00000000D+00  0.51894351D-03  0.00000000D+00
  0.00000000D+00  0.00000000D+00  0.00000000D+00  0.00000000D+00 -0.21424597D-01
  0.18804404D-02  0.00000000D+00  0.00000000D+00  0.00000000D+00  0.00000000D+00
  0.00000000D+00  0.00000000D+00  0.00000000D+00 -0.00000000D+00 -0.00000000D+00
  0.00000000D+00  0.41194699D+00  0.31585482D+00  0.15763369D+00  0.00000000D+00
  0.00000000D+00  0.00000000D+00  0.00000000D+00  0.00000000D+00  0.00000000D+00
  0.00000000D+00  0.21329742D-01  0.00000000D+00  0.00000000D+00  0.00000000D+00
  0.51894351D-03  0.00000000D+00  0.00000000D+00  0.00000000D+00  0.00000000D+00
  0.00000000D+00  0.21424597D-01 -0.18804404D-02  0.00000000D+00  0.00000000D+00
  0.00000000D+00  0.00000000D+00  0.00000000D+00  0.93862906D-02  0.00000000D+00
  0.00000000D+00 -0.33553984D-01 -0.56913907D-01 -0.64794471D-01 -0.19604678D-01
 -0.16862024D-02 -0.63927068D-02  0.65087879D-02  0.33553984D-01  0.56913907D-01
  0.64794471D-01  0.19604678D-01 -0.16862024D-02  0.63927068D-02 -0.65087879D-02
  0.33553984D-01  0.56913907D-01  0.64794471D-01  0.19604678D-01 -0.16862024D-02
 -0.63927068D-02  0.65087879D-02  0.00000000D+00  0.00000000D+00  0.00000000D+00
  0.00000000D+00  0.93862906D-02  0.00000000D+00  0.00000000D+00 -0.33553984D-01
 -0.56913907D-01 -0.64794471D-01 -0.19604678D-01 -0.16862024D-02  0.63927068D-02
 -0.65087879D-02
MO    6     MO 0.0        OCC NO =    2.0000000  ORB. ENERGY =   -0.434720
 -0.80796070D-15 -0.14905297D-14 -0.24061772D-14 -0.31321277D-14 -0.26726502D-14
 -0.92280190D-15  0.15728152D-14  0.72490909D-15 -0.20327208D-14  0.00000000D+00
  0.00000000D+00  0.00000000D+00  0.41194699D+00  0.31585482D+00  0.15763369D+00
  0.25305918D-14  0.19402973D-14  0.96834433D-15  0.47135849D-14  0.00000000D+00
  0.21329742D-01  0.14191460D-14 -0.18514420D-13  0.00000000D+00  0.51894351D-03
  0.25241230D-14 -0.10712299D-01  0.10712299D-01 -0.38597731D-15  0.00000000D+00
  0.00000000D+00  0.18804404D-02  0.80796070D-15  0.14905297D-14  0.24061772D-14
  0.31321277D-14  0.26726502D-14  0.92280190D-15 -0.15728152D-14 -0.72490909D-15
  0.20327208D-14  0.00000000D+00  0.00000000D+00  0.00000000D+00  0.41194699D+00
  0.31585482D+00  0.15763369D+00  0.25305918D-14  0.19402973D-14  0.96834433D-15
 -0.47135849D-14  0.00000000D+00  0.21329742D-01  0.14191460D-14  0.18514420D-13
  0.00000000D+00  0.51894351D-03  0.25241230D-14  0.10712299D-01 -0.10712299D-01
  0.38597731D-15  0.00000000D+00  0.00000000D+00 -0.18804404D-02  0.38744803D-01
  0.65718519D-01  0.74818211D-01  0.22637532D-01  0.00000000D+00 -0.53770334D-02
 -0.75157009D-02 -0.19372401D-01 -0.32859259D-01 -0.37409106D-01 -0.11318766D-01
 -0.63927068D-02  0.56954596D-02  0.37578505D-02 -0.19372401D-01 -0.32859259D-01
 -0.37409106D-01 -0.11318766D-01  0.63927068D-02  0.56954596D-02  0.37578505D-02
  0.19372401D-01  0.32859259D-01  0.37409106D-01  0.11318766D-01 -0.63927068D-02
  0.56954596D-02  0.37578505D-02 -0.38744803D-01 -0.65718519D-01 -0.74818211D-01
 -0.22637532D-01  0.00000000D+00 -0.53770334D-02 -0.75157009D-02  0.19372401D-01
  0.32859259D-01  0.37409106D-01  0.11318766D-01  0.63927068D-02  0.56954596D-02
  0.37578505D-02
MO    7     MO 0.0        OCC NO =    2.0000000  ORB. ENERGY =   -0.368610
  0.93721112D-02  0.17289715D-01  0.27910961D-01  0.36331778D-01  0.31001972D-01
  0.10704236D-01  0.17354228D-01  0.79985479D-02 -0.22428763D-01  0.00000000D+00
  0.00000000D+00  0.00000000D+00 -0.71753505D-14 -0.55016037D-14 -0.27456858D-14
  0.53518290D+00  0.41034430D+00  0.20479057D+00 -0.84811302D-02  0.00000000D+00
 -0.22809774D-14  0.27651245D-01  0.15224027D-02  0.00000000D+00 -0.21237270D-15
  0.11466245D-02  0.10879004D-01  0.10879004D-01 -0.15657616D-01  0.00000000D+00
  0.00000000D+00 -0.11953227D-14  0.93721112D-02  0.17289715D-01  0.27910961D-01
  0.36331778D-01  0.31001972D-01  0.10704236D-01  0.17354228D-01  0.79985479D-02
 -0.22428763D-01  0.00000000D+00  0.00000000D+00  0.00000000D+00  0.71753505D-14
  0.55016037D-14  0.27456858D-14 -0.53518290D+00 -0.41034430D+00 -0.20479057D+00
 -0.84811302D-02  0.00000000D+00  0.22809774D-14 -0.27651245D-01  0.15224027D-02
  0.00000000D+00  0.21237270D-15 -0.11466245D-02  0.10879004D-01  0.10879004D-01
 -0.15657616D-01  0.00000000D+00  0.00000000D+00 -0.11953227D-14  0.17891498D-01
  0.30347368D-01  0.34549406D-01  0.13243394D-01  0.00000000D+00 -0.64791502D-02
  0.10086783D-01  0.17891498D-01  0.30347368D-01  0.34549406D-01  0.13243394D-01
  0.56111086D-02  0.32395751D-02  0.10086783D-01  0.17891498D-01  0.30347368D-01
  0.34549406D-01  0.13243394D-01 -0.56111086D-02  0.32395751D-02  0.10086783D-01
  0.17891498D-01  0.30347368D-01  0.34549406D-01  0.13243394D-01 -0.56111086D-02
 -0.32395751D-02 -0.10086783D-01  0.17891498D-01  0.30347368D-01  0.34549406D-01
  0.13243394D-01  0.00000000D+00  0.64791502D-02 -0.10086783D-01  0.17891498D-01
  0.30347368D-01  0.34549406D-01  0.13243394D-01  0.56111086D-02 -0.32395751D-02
 -0.10086783D-01
MO    8     MO 0.0        OCC NO =    2.0000000  ORB. ENERGY =   -0.344470
  0.00000000D+00  0.00000000D+00  0.00000000D+00  0.00000000D+00  0.00000000D+00
  0.00000000D+00 -0.00000000D+00 -0.00000000D+00  0.00000000D+00  0.40670173D+00
  0.31183309D+00  0.15562657D+00  0.00000000D+00  0.00000000D+00  0.00000000D+00
  0.00000000D+00  0.00000000D+00  0.00000000D+00  0.00000000D+00  0.21993036D-01
  0.00000000D+00  0.00000000D+00  0.00000000D+00  0.13815025D-02  0.00000000D+00
  0.00000000D+00  0.00000000D+00  0.00000000D+00  0.00000000D+00 -0.30054735D-01
  0.38117196D-01  0.00000000D+00  0.00000000D+00  0.00000000D+00  0.00000000D+00
  0.00000000D+00  0.00000000D+00  0.00000000D+00 -0.00000000D+00 -0.00000000D+00
  0.00000000D+00 -0.40670173D+00 -0.31183309D+00 -0.15562657D+00  0.00000000D+00
  0.00000000D+00  0.00000000D+00  0.00000000D+00  0.00000000D+00  0.00000000D+00
  0.00000000D+00 -0.21993036D-01  0.00000000D+00  0.00000000D+00  0.00000000D+00
 -0.13815025D-02  0.00000000D+00  0.00000000D+00  0.00000000D+00  0.00000000D+00
  0.00000000D+00 -0.30054735D-01  0.38117196D-01  0.00000000D+00  0.00000000D+00
  0.00000000D+00  0.00000000D+00  0.00000000D+00  0.10190135D-01  0.00000000D+00
  0.00000000D+00 -0.40579430D-01 -0.68830393D-01 -0.78360970D-01 -0.32084021D-01
 -0.16945153D-02 -0.68616063D-02  0.37667494D-02  0.40579430D-01  0.68830393D-01
  0.78360970D-01  0.32084021D-01 -0.16945153D-02  0.68616063D-02 -0.37667494D-02
 -0.40579430D-01 -0.68830393D-01 -0.78360970D-01 -0.32084021D-01  0.16945153D-02
  0.68616063D-02 -0.37667494D-02  0.00000000D+00  0.00000000D+00  0.00000000D+00
  0.00000000D+00 -0.10190135D-01  0.00000000D+00  0.00000000D+00  0.40579430D-01
  0.68830393D-01  0.78360970D-01  0.32084021D-01  0.16945153D-02 -0.68616063D-02
  0.37667494D-02
MO    9     MO 0.0        OCC NO =    2.0000000  ORB. ENERGY =   -0.344470
  0.17297890D-15  0.31911230D-15  0.51514620D-15  0.67056729D-15  0.57219628D-15
  0.19756563D-15  0.12585748D-14  0.58007597D-15 -0.16265936D-14  0.00000000D+00
  0.00000000D+00  0.00000000D+00  0.40670173D+00  0.31183309D+00  0.15562657D+00
  0.11262337D-13  0.86352459D-14  0.43095929D-14  0.18075803D-15  0.00000000D+00
  0.21993036D-01  0.73959724D-15 -0.10735341D-16  0.00000000D+00  0.13815025D-02
 -0.58391052D-16 -0.15027368D-01  0.15027368D-01  0.10975048D-14  0.00000000D+00
  0.00000000D+00  0.38117196D-01  0.17297890D-15  0.31911230D-15  0.51514620D-15
  0.67056729D-15  0.57219628D-15  0.19756563D-15  0.12585748D-14  0.58007597D-15
 -0.16265936D-14  0.00000000D+00  0.00000000D+00  0.00000000D+00 -0.40670173D+00
 -0.31183309D+00 -0.15562657D+00 -0.11262337D-13 -0.86352459D-14 -0.43095929D-14
  0.18075803D-15  0.00000000D+00 -0.21993036D-01 -0.73959724D-15 -0.10735341D-16
  0.00000000D+00 -0.13815025D-02  0.58391052D-16 -0.15027368D-01  0.15027368D-01
  0.10975048D-14  0.00000000D+00  0.00000000D+00  0.38117196D-01  0.46857089D-01
  0.79478492D-01  0.90483454D-01  0.37047436D-01  0.00000000D+00 -0.56560655D-02
 -0.43494676D-02 -0.23428545D-01 -0.39739246D-01 -0.45241727D-01 -0.18523718D-01
 -0.68616063D-02  0.62285852D-02  0.21747338D-02 -0.23428545D-01 -0.39739246D-01
 -0.45241727D-01 -0.18523718D-01  0.68616063D-02  0.62285852D-02  0.21747338D-02
 -0.23428545D-01 -0.39739246D-01 -0.45241727D-01 -0.18523718D-01  0.68616063D-02
 -0.62285852D-02 -0.21747338D-02  0.46857089D-01  0.79478492D-01  0.90483454D-01
  0.37047436D-01  0.00000000D+00  0.56560655D-02  0.43494676D-02 -0.23428545D-01
 -0.39739246D-01 -0.45241727D-01 -0.18523718D-01 -0.68616063D-02 -0.62285852D-02
 -0.21747338D-02
END DATA
 THE  HF ENERGY =    -79.841641402195 THE VIRIAL(-V/T)=   2.01101958
