 Benzene energy calculation                              
GAUSSIAN             21 MOL ORBITALS    234 PRIMITIVES       12 NUCLEI
  C    1    (CENTRE  1)  -0.00000000  2.64245643 -0.00000000  CHARGE =  6.0
  C    2    (CENTRE  2)   2.28843440  1.32122821 -0.00000000  CHARGE =  6.0
  C    3    (CENTRE  3)   2.28843440 -1.32122821 -0.00000000  CHARGE =  6.0
  C    4    (CENTRE  4)  -0.00000000 -2.64245643 -0.00000000  CHARGE =  6.0
  C    5    (CENTRE  5)  -2.28843440 -1.32122821  0.00000000  CHARGE =  6.0
  C    6    (CENTRE  6)  -2.28843440  1.32122821  0.00000000  CHARGE =  6.0
  H    7    (CENTRE  7)  -0.00000000  4.69551868 -0.00000000  CHARGE =  1.0
  H    8    (CENTRE  8)   4.06643846  2.34775934 -0.00000000  CHARGE =  1.0
  H    9    (CENTRE  9)   4.06643846 -2.34775934 -0.00000000  CHARGE =  1.0
  H   10    (CENTRE 10)  -0.00000000 -4.69551868 -0.00000000  CHARGE =  1.0
  H   11    (CENTRE 11)  -4.06643846 -2.34775934  0.00000000  CHARGE =  1.0
  H   12    (CENTRE 12)  -4.06643846  2.34775934  0.00000000  CHARGE =  1.0
CENTRE ASSIGNMENTS    1  1  1  1  1  1  1  1  1  1  1  1  1  1  1  1  1  1  1  1
CENTRE ASSIGNMENTS    1  1  1  1  1  1  1  1  1  1  1  1  2  2  2  2  2  2  2  2
CENTRE ASSIGNMENTS    2  2  2  2  2  2  2  2  2  2  2  2  2  2  2  2  2  2  2  2
CENTRE ASSIGNMENTS    2  2  2  2  3  3  3  3  3  3  3  3  3  3  3  3  3  3  3  3
CENTRE ASSIGNMENTS    3  3  3  3  3  3  3  3  3  3  3  3  3  3  3  3  4  4  4  4
CENTRE ASSIGNMENTS    4  4  4  4  4  4  4  4  4  4  4  4  4  4  4  4  4  4  4  4
CENTRE ASSIGNMENTS    4  4  4  4  4  4  4  4  5  5  5  5  5  5  5  5  5  5  5  5
CENTRE ASSIGNMENTS    5  5  5  5  5  5  5  5  5  5  5  5  5  5  5  5  5  5  5  5
CENTRE ASSIGNMENTS    6  6  6  6  6  6  6  6  6  6  6  6  6  6  6  6  6  6  6  6
CENTRE ASSIGNMENTS    6  6  6  6  6  6  6  6  6  6  6  6  7  7  7  7  7  7  7  8
CENTRE ASSIGNMENTS    8  8  8  8  8  8  9  9  9  9  9  9  9 10 10 10 10 10 10 10
CENTRE ASSIGNMENTS   11 11 11 11 11 11 11 12 12 12 12 12 12 12
TYPE ASSIGNMENTS      1  1  1  1  1  1  1  1  1  2  2  2  3  3  3  4  4  4  1  2
TYPE ASSIGNMENTS      3  4  1  2  3  4  5  6  7  8  9 10  1  1  1  1  1  1  1  1
TYPE ASSIGNMENTS      1  2  2  2  3  3  3  4  4  4  1  2  3  4  1  2  3  4  5  6
TYPE ASSIGNMENTS      7  8  9 10  1  1  1  1  1  1  1  1  1  2  2  2  3  3  3  4
TYPE ASSIGNMENTS      4  4  1  2  3  4  1  2  3  4  5  6  7  8  9 10  1  1  1  1
TYPE ASSIGNMENTS      1  1  1  1  1  2  2  2  3  3  3  4  4  4  1  2  3  4  1  2
TYPE ASSIGNMENTS      3  4  5  6  7  8  9 10  1  1  1  1  1  1  1  1  1  2  2  2
TYPE ASSIGNMENTS      3  3  3  4  4  4  1  2  3  4  1  2  3  4  5  6  7  8  9 10
TYPE ASSIGNMENTS      1  1  1  1  1  1  1  1  1  2  2  2  3  3  3  4  4  4  1  2
TYPE ASSIGNMENTS      3  4  1  2  3  4  5  6  7  8  9 10  1  1  1  1  2  3  4  1
TYPE ASSIGNMENTS      1  1  1  2  3  4  1  1  1  1  2  3  4  1  1  1  1  2  3  4
TYPE ASSIGNMENTS      1  1  1  1  2  3  4  1  1  1  1  2  3  4
EXPONENTS  0.3047525D+04 0.4573695D+03 0.1039487D+03 0.2921016D+02 0.9286663D+01
EXPONENTS  0.3163927D+01 0.7868272D+01 0.1881289D+01 0.5442493D+00 0.7868272D+01
EXPONENTS  0.1881289D+01 0.5442493D+00 0.7868272D+01 0.1881289D+01 0.5442493D+00
EXPONENTS  0.7868272D+01 0.1881289D+01 0.5442493D+00 0.1687145D+00 0.1687145D+00
EXPONENTS  0.1687145D+00 0.1687145D+00 0.4380000D-01 0.4380000D-01 0.4380000D-01
EXPONENTS  0.4380000D-01 0.8000000D+00 0.8000000D+00 0.8000000D+00 0.8000000D+00
EXPONENTS  0.8000000D+00 0.8000000D+00 0.3047525D+04 0.4573695D+03 0.1039487D+03
EXPONENTS  0.2921016D+02 0.9286663D+01 0.3163927D+01 0.7868272D+01 0.1881289D+01
EXPONENTS  0.5442493D+00 0.7868272D+01 0.1881289D+01 0.5442493D+00 0.7868272D+01
EXPONENTS  0.1881289D+01 0.5442493D+00 0.7868272D+01 0.1881289D+01 0.5442493D+00
EXPONENTS  0.1687145D+00 0.1687145D+00 0.1687145D+00 0.1687145D+00 0.4380000D-01
EXPONENTS  0.4380000D-01 0.4380000D-01 0.4380000D-01 0.8000000D+00 0.8000000D+00
EXPONENTS  0.8000000D+00 0.8000000D+00 0.8000000D+00 0.8000000D+00 0.3047525D+04
EXPONENTS  0.4573695D+03 0.1039487D+03 0.2921016D+02 0.9286663D+01 0.3163927D+01
EXPONENTS  0.7868272D+01 0.1881289D+01 0.5442493D+00 0.7868272D+01 0.1881289D+01
EXPONENTS  0.5442493D+00 0.7868272D+01 0.1881289D+01 0.5442493D+00 0.7868272D+01
EXPONENTS  0.1881289D+01 0.5442493D+00 0.1687145D+00 0.1687145D+00 0.1687145D+00
EXPONENTS  0.1687145D+00 0.4380000D-01 0.4380000D-01 0.4380000D-01 0.4380000D-01
EXPONENTS  0.8000000D+00 0.8000000D+00 0.8000000D+00 0.8000000D+00 0.8000000D+00
EXPONENTS  0.8000000D+00 0.3047525D+04 0.4573695D+03 0.1039487D+03 0.2921016D+02
EXPONENTS  0.9286663D+01 0.3163927D+01 0.7868272D+01 0.1881289D+01 0.5442493D+00
EXPONENTS  0.7868272D+01 0.1881289D+01 0.5442493D+00 0.7868272D+01 0.1881289D+01
EXPONENTS  0.5442493D+00 0.7868272D+01 0.1881289D+01 0.5442493D+00 0.1687145D+00
EXPONENTS  0.1687145D+00 0.1687145D+00 0.1687145D+00 0.4380000D-01 0.4380000D-01
EXPONENTS  0.4380000D-01 0.4380000D-01 0.8000000D+00 0.8000000D+00 0.8000000D+00
EXPONENTS  0.8000000D+00 0.8000000D+00 0.8000000D+00 0.3047525D+04 0.4573695D+03
EXPONENTS  0.1039487D+03 0.2921016D+02 0.9286663D+01 0.3163927D+01 0.7868272D+01
EXPONENTS  0.1881289D+01 0.5442493D+00 0.7868272D+01 0.1881289D+01 0.5442493D+00
EXPONENTS  0.7868272D+01 0.1881289D+01 0.5442493D+00 0.7868272D+01 0.1881289D+01
EXPONENTS  0.5442493D+00 0.1687145D+00 0.1687145D+00 0.1687145D+00 0.1687145D+00
EXPONENTS  0.4380000D-01 0.4380000D-01 0.4380000D-01 0.4380000D-01 0.8000000D+00
EXPONENTS  0.8000000D+00 0.8000000D+00 0.8000000D+00 0.8000000D+00 0.8000000D+00
EXPONENTS  0.3047525D+04 0.4573695D+03 0.1039487D+03 0.2921016D+02 0.9286663D+01
EXPONENTS  0.3163927D+01 0.7868272D+01 0.1881289D+01 0.5442493D+00 0.7868272D+01
EXPONENTS  0.1881289D+01 0.5442493D+00 0.7868272D+01 0.1881289D+01 0.5442493D+00
EXPONENTS  0.7868272D+01 0.1881289D+01 0.5442493D+00 0.1687145D+00 0.1687145D+00
EXPONENTS  0.1687145D+00 0.1687145D+00 0.4380000D-01 0.4380000D-01 0.4380000D-01
EXPONENTS  0.4380000D-01 0.8000000D+00 0.8000000D+00 0.8000000D+00 0.8000000D+00
EXPONENTS  0.8000000D+00 0.8000000D+00 0.1873114D+02 0.2825394D+01 0.6401217D+00
EXPONENTS  0.1612778D+00 0.1100000D+01 0.1100000D+01 0.1100000D+01 0.1873114D+02
EXPONENTS  0.2825394D+01 0.6401217D+00 0.1612778D+00 0.1100000D+01 0.1100000D+01
EXPONENTS  0.1100000D+01 0.1873114D+02 0.2825394D+01 0.6401217D+00 0.1612778D+00
EXPONENTS  0.1100000D+01 0.1100000D+01 0.1100000D+01 0.1873114D+02 0.2825394D+01
EXPONENTS  0.6401217D+00 0.1612778D+00 0.1100000D+01 0.1100000D+01 0.1100000D+01
EXPONENTS  0.1873114D+02 0.2825394D+01 0.6401217D+00 0.1612778D+00 0.1100000D+01
EXPONENTS  0.1100000D+01 0.1100000D+01 0.1873114D+02 0.2825394D+01 0.6401217D+00
EXPONENTS  0.1612778D+00 0.1100000D+01 0.1100000D+01 0.1100000D+01
MO    1     MO 0.0        OCC NO =    2.0000000  ORB. ENERGY =  -10.198809
  0.21733538D+00  0.40094134D+00  0.64724364D+00  0.84251891D+00  0.71892291D+00
  0.24822680D+00 -0.80075483D-02 -0.36906717D-02  0.10349029D-01  0.00000000D+00
  0.00000000D+00  0.00000000D+00  0.13347399D-03  0.10233939D-03  0.51074527D-04
  0.00000000D+00  0.00000000D+00  0.00000000D+00 -0.72134460D-03  0.00000000D+00
 -0.53248938D-04  0.00000000D+00  0.22257434D-04  0.00000000D+00 -0.14807598D-04
  0.00000000D+00 -0.43427360D-02 -0.41517046D-02 -0.43567366D-02  0.00000000D+00
  0.00000000D+00  0.00000000D+00  0.21733538D+00  0.40094134D+00  0.64724364D+00
  0.84251891D+00  0.71892291D+00  0.24822680D+00 -0.80075483D-02 -0.36906717D-02
  0.10349029D-01  0.11559186D-03  0.88628510D-04  0.44231838D-04  0.66736994D-04
  0.51169694D-04  0.25537264D-04  0.00000000D+00  0.00000000D+00  0.00000000D+00
 -0.72134460D-03 -0.46114933D-04 -0.26624469D-04  0.00000000D+00  0.22257433D-04
 -0.12823756D-04 -0.74037992D-05  0.00000000D+00 -0.41994624D-02 -0.42949782D-02
 -0.43567366D-02  0.16543805D-03  0.00000000D+00  0.00000000D+00  0.21733538D+00
  0.40094134D+00  0.64724364D+00  0.84251891D+00  0.71892291D+00  0.24822680D+00
 -0.80075483D-02 -0.36906717D-02  0.10349029D-01  0.11559186D-03  0.88628510D-04
  0.44231838D-04 -0.66736994D-04 -0.51169694D-04 -0.25537264D-04  0.00000000D+00
  0.00000000D+00  0.00000000D+00 -0.72134460D-03 -0.46114933D-04  0.26624469D-04
  0.00000000D+00  0.22257433D-04 -0.12823756D-04  0.74037992D-05  0.00000000D+00
 -0.41994624D-02 -0.42949782D-02 -0.43567366D-02 -0.16543805D-03  0.00000000D+00
  0.00000000D+00  0.21733538D+00  0.40094134D+00  0.64724364D+00  0.84251891D+00
  0.71892291D+00  0.24822680D+00 -0.80075483D-02 -0.36906717D-02  0.10349029D-01
  0.00000000D+00  0.00000000D+00  0.00000000D+00 -0.13347399D-03 -0.10233939D-03
 -0.51074527D-04  0.00000000D+00  0.00000000D+00  0.00000000D+00 -0.72134460D-03
  0.00000000D+00  0.53248938D-04  0.00000000D+00  0.22257434D-04  0.00000000D+00
  0.14807598D-04  0.00000000D+00 -0.43427360D-02 -0.41517046D-02 -0.43567366D-02
  0.00000000D+00  0.00000000D+00  0.00000000D+00  0.21733538D+00  0.40094134D+00
  0.64724364D+00  0.84251891D+00  0.71892291D+00  0.24822680D+00 -0.80075483D-02
 -0.36906717D-02  0.10349029D-01 -0.11559186D-03 -0.88628510D-04 -0.44231838D-04
 -0.66736994D-04 -0.51169694D-04 -0.25537264D-04  0.00000000D+00  0.00000000D+00
  0.00000000D+00 -0.72134460D-03  0.46114933D-04  0.26624469D-04  0.00000000D+00
  0.22257433D-04  0.12823756D-04  0.74037992D-05  0.00000000D+00 -0.41994624D-02
 -0.42949782D-02 -0.43567366D-02  0.16543805D-03  0.00000000D+00  0.00000000D+00
  0.21733538D+00  0.40094134D+00  0.64724364D+00  0.84251891D+00  0.71892291D+00
  0.24822680D+00 -0.80075483D-02 -0.36906717D-02  0.10349029D-01 -0.11559186D-03
 -0.88628510D-04 -0.44231838D-04  0.66736994D-04  0.51169694D-04  0.25537264D-04
  0.00000000D+00  0.00000000D+00  0.00000000D+00 -0.72134460D-03  0.46114933D-04
 -0.26624469D-04  0.00000000D+00  0.22257433D-04  0.12823756D-04 -0.74037992D-05
  0.00000000D+00 -0.41994624D-02 -0.42949782D-02 -0.43567366D-02 -0.16543805D-03
  0.00000000D+00  0.00000000D+00 -0.42682858D-04 -0.72398206D-04 -0.82422799D-04
  0.20252717D-03  0.00000000D+00  0.77364591D-04  0.00000000D+00 -0.42682858D-04
 -0.72398206D-04 -0.82422799D-04  0.20252717D-03  0.66999701D-04  0.38682295D-04
  0.00000000D+00 -0.42682858D-04 -0.72398206D-04 -0.82422799D-04  0.20252717D-03
  0.66999701D-04 -0.38682295D-04  0.00000000D+00 -0.42682858D-04 -0.72398206D-04
 -0.82422799D-04  0.20252717D-03  0.00000000D+00 -0.77364591D-04  0.00000000D+00
 -0.42682858D-04 -0.72398206D-04 -0.82422799D-04  0.20252717D-03 -0.66999701D-04
 -0.38682295D-04  0.00000000D+00 -0.42682858D-04 -0.72398206D-04 -0.82422799D-04
  0.20252717D-03 -0.66999701D-04  0.38682295D-04  0.00000000D+00
MO    2     MO 0.0        OCC NO =    2.0000000  ORB. ENERGY =  -10.198543
  0.00000000D+00  0.00000000D+00  0.00000000D+00  0.00000000D+00  0.00000000D+00
  0.00000000D+00 -0.00000000D+00 -0.00000000D+00  0.00000000D+00 -0.33679612D-03
 -0.25823390D-03 -0.12887681D-03  0.00000000D+00  0.00000000D+00  0.00000000D+00
  0.00000000D+00  0.00000000D+00  0.00000000D+00  0.00000000D+00  0.25933245D-03
  0.00000000D+00  0.00000000D+00  0.00000000D+00 -0.60730172D-04  0.00000000D+00
  0.00000000D+00  0.00000000D+00  0.00000000D+00  0.00000000D+00  0.20371082D-03
  0.00000000D+00  0.00000000D+00  0.26623816D+00  0.49115741D+00  0.79288035D+00
  0.10320946D+01  0.88068822D+00  0.30408048D+00 -0.99642632D-02 -0.45925198D-02
  0.12877905D-01 -0.84940207D-04 -0.65126763D-04 -0.32502819D-04  0.14540908D-03
  0.11149046D-03  0.55641552D-04  0.00000000D+00  0.00000000D+00  0.00000000D+00
 -0.12728284D-02  0.94684497D-04 -0.95059540D-04  0.00000000D+00  0.52012343D-03
 -0.70346909D-04 -0.55522256D-05  0.00000000D+00 -0.50494426D-02 -0.51889248D-02
 -0.51750653D-02  0.37879432D-04  0.00000000D+00  0.00000000D+00  0.26623816D+00
  0.49115741D+00  0.79288035D+00  0.10320946D+01  0.88068822D+00  0.30408048D+00
 -0.99642632D-02 -0.45925198D-02  0.12877905D-01 -0.84940207D-04 -0.65126763D-04
 -0.32502819D-04 -0.14540908D-03 -0.11149046D-03 -0.55641552D-04  0.00000000D+00
  0.00000000D+00  0.00000000D+00 -0.12728284D-02  0.94684497D-04  0.95059540D-04
  0.00000000D+00  0.52012343D-03 -0.70346909D-04  0.55522256D-05  0.00000000D+00
 -0.50494426D-02 -0.51889248D-02 -0.51750653D-02 -0.37879432D-04  0.00000000D+00
  0.00000000D+00  0.00000000D+00  0.00000000D+00  0.00000000D+00  0.00000000D+00
  0.00000000D+00  0.00000000D+00 -0.00000000D+00 -0.00000000D+00  0.00000000D+00
 -0.33679612D-03 -0.25823390D-03 -0.12887681D-03  0.00000000D+00  0.00000000D+00
  0.00000000D+00  0.00000000D+00  0.00000000D+00  0.00000000D+00  0.00000000D+00
  0.25933245D-03  0.00000000D+00  0.00000000D+00  0.00000000D+00 -0.60730172D-04
  0.00000000D+00  0.00000000D+00  0.00000000D+00  0.00000000D+00  0.00000000D+00
 -0.20371082D-03  0.00000000D+00  0.00000000D+00 -0.26623816D+00 -0.49115741D+00
 -0.79288035D+00 -0.10320946D+01 -0.88068822D+00 -0.30408048D+00  0.99642632D-02
  0.45925198D-02 -0.12877905D-01 -0.84940207D-04 -0.65126763D-04 -0.32502819D-04
  0.14540908D-03  0.11149046D-03  0.55641552D-04  0.00000000D+00  0.00000000D+00
  0.00000000D+00  0.12728284D-02  0.94684497D-04 -0.95059540D-04  0.00000000D+00
 -0.52012343D-03 -0.70346909D-04 -0.55522256D-05  0.00000000D+00  0.50494426D-02
  0.51889248D-02  0.51750653D-02 -0.37879432D-04  0.00000000D+00  0.00000000D+00
 -0.26623816D+00 -0.49115741D+00 -0.79288035D+00 -0.10320946D+01 -0.88068822D+00
 -0.30408048D+00  0.99642632D-02  0.45925198D-02 -0.12877905D-01 -0.84940207D-04
 -0.65126763D-04 -0.32502819D-04 -0.14540908D-03 -0.11149046D-03 -0.55641552D-04
  0.00000000D+00  0.00000000D+00  0.00000000D+00  0.12728284D-02  0.94684497D-04
  0.95059540D-04  0.00000000D+00 -0.52012343D-03 -0.70346909D-04  0.55522256D-05
  0.00000000D+00  0.50494426D-02  0.51889248D-02  0.51750653D-02  0.37879432D-04
  0.00000000D+00  0.00000000D+00  0.00000000D+00  0.00000000D+00  0.00000000D+00
  0.00000000D+00 -0.13330716D-04  0.00000000D+00  0.00000000D+00 -0.28716807D-04
 -0.48709140D-04 -0.55453635D-04  0.12359932D-03  0.14902099D-03  0.93733798D-04
  0.00000000D+00 -0.28716807D-04 -0.48709140D-04 -0.55453635D-04  0.12359932D-03
  0.14902099D-03 -0.93733798D-04  0.00000000D+00  0.00000000D+00  0.00000000D+00
  0.00000000D+00  0.00000000D+00 -0.13330716D-04  0.00000000D+00  0.00000000D+00
  0.28716807D-04  0.48709140D-04  0.55453635D-04 -0.12359932D-03  0.14902099D-03
  0.93733798D-04  0.00000000D+00  0.28716807D-04  0.48709140D-04  0.55453635D-04
 -0.12359932D-03  0.14902099D-03 -0.93733798D-04  0.00000000D+00
MO    3     MO 0.0        OCC NO =    2.0000000  ORB. ENERGY =  -10.198543
  0.30742534D+00  0.56713973D+00  0.91553937D+00  0.11917602D+01  0.10169312D+01
  0.35112189D+00 -0.11505740D-01 -0.53029851D-02  0.14870124D-01  0.00000000D+00
  0.00000000D+00  0.00000000D+00 -0.98823689D-06 -0.75771736D-06 -0.37815407D-06
  0.00000000D+00  0.00000000D+00  0.00000000D+00 -0.14697356D-02  0.00000000D+00
  0.39801846D-04  0.00000000D+00  0.60058680D-03  0.00000000D+00 -0.73552488D-04
  0.00000000D+00 -0.59703289D-02 -0.58519194D-02 -0.59756507D-02  0.00000000D+00
  0.00000000D+00  0.00000000D+00  0.15371267D+00  0.28356986D+00  0.45776968D+00
  0.59588011D+00  0.50846558D+00  0.17556095D+00 -0.57528700D-02 -0.26514925D-02
  0.74350618D-02  0.14540908D-03  0.11149046D-03  0.55641552D-04 -0.25284415D-03
 -0.19386485D-03 -0.96752150D-04  0.00000000D+00  0.00000000D+00  0.00000000D+00
 -0.73486782D-03 -0.95059540D-04  0.20444980D-03  0.00000000D+00  0.30029340D-03
 -0.55522256D-05 -0.63935751D-04  0.00000000D+00 -0.30171524D-02 -0.28939717D-02
 -0.29878253D-02  0.13948220D-03  0.00000000D+00  0.00000000D+00 -0.15371267D+00
 -0.28356986D+00 -0.45776968D+00 -0.59588011D+00 -0.50846558D+00 -0.17556095D+00
  0.57528700D-02  0.26514925D-02 -0.74350618D-02 -0.14540908D-03 -0.11149046D-03
 -0.55641552D-04 -0.25284415D-03 -0.19386485D-03 -0.96752150D-04  0.00000000D+00
  0.00000000D+00  0.00000000D+00  0.73486782D-03  0.95059540D-04  0.20444980D-03
  0.00000000D+00 -0.30029340D-03  0.55522256D-05 -0.63935751D-04  0.00000000D+00
  0.30171524D-02  0.28939717D-02  0.29878253D-02  0.13948220D-03  0.00000000D+00
  0.00000000D+00 -0.30742534D+00 -0.56713973D+00 -0.91553937D+00 -0.11917602D+01
 -0.10169312D+01 -0.35112189D+00  0.11505740D-01  0.53029851D-02 -0.14870124D-01
  0.00000000D+00  0.00000000D+00  0.00000000D+00 -0.98823689D-06 -0.75771736D-06
 -0.37815407D-06  0.00000000D+00  0.00000000D+00  0.00000000D+00  0.14697356D-02
  0.00000000D+00  0.39801846D-04  0.00000000D+00 -0.60058680D-03  0.00000000D+00
 -0.73552488D-04  0.00000000D+00  0.59703289D-02  0.58519194D-02  0.59756507D-02
  0.00000000D+00  0.00000000D+00  0.00000000D+00 -0.15371267D+00 -0.28356986D+00
 -0.45776968D+00 -0.59588011D+00 -0.50846558D+00 -0.17556095D+00  0.57528700D-02
  0.26514925D-02 -0.74350618D-02  0.14540908D-03  0.11149046D-03  0.55641552D-04
 -0.25284415D-03 -0.19386485D-03 -0.96752150D-04  0.00000000D+00  0.00000000D+00
  0.00000000D+00  0.73486782D-03 -0.95059540D-04  0.20444980D-03  0.00000000D+00
 -0.30029340D-03 -0.55522256D-05 -0.63935751D-04  0.00000000D+00  0.30171524D-02
  0.28939717D-02  0.29878253D-02 -0.13948220D-03  0.00000000D+00  0.00000000D+00
  0.15371267D+00  0.28356986D+00  0.45776968D+00  0.59588011D+00  0.50846558D+00
  0.17556095D+00 -0.57528700D-02 -0.26514925D-02  0.74350618D-02 -0.14540908D-03
 -0.11149046D-03 -0.55641552D-04 -0.25284415D-03 -0.19386485D-03 -0.96752150D-04
  0.00000000D+00  0.00000000D+00  0.00000000D+00 -0.73486782D-03  0.95059540D-04
  0.20444980D-03  0.00000000D+00  0.30029340D-03  0.55522256D-05 -0.63935751D-04
  0.00000000D+00 -0.30171524D-02 -0.28939717D-02 -0.29878253D-02 -0.13948220D-03
  0.00000000D+00  0.00000000D+00 -0.33159313D-04 -0.56244471D-04 -0.64032342D-04
  0.14272020D-03  0.00000000D+00  0.20313822D-03  0.00000000D+00 -0.16579656D-04
 -0.28122235D-04 -0.32016171D-04  0.71360099D-04  0.93733798D-04  0.40786518D-04
  0.00000000D+00  0.16579656D-04  0.28122235D-04  0.32016171D-04 -0.71360099D-04
 -0.93733798D-04  0.40786518D-04  0.00000000D+00  0.33159313D-04  0.56244471D-04
  0.64032342D-04 -0.14272020D-03  0.00000000D+00  0.20313822D-03  0.00000000D+00
  0.16579656D-04  0.28122235D-04  0.32016171D-04 -0.71360099D-04  0.93733798D-04
  0.40786518D-04  0.00000000D+00 -0.16579656D-04 -0.28122235D-04 -0.32016171D-04
  0.71360099D-04 -0.93733798D-04  0.40786518D-04  0.00000000D+00
MO    4     MO 0.0        OCC NO =    2.0000000  ORB. ENERGY =  -10.197989
  0.30750626D+00  0.56728901D+00  0.91578036D+00  0.11920739D+01  0.10171988D+01
  0.35121432D+00 -0.11584424D-01 -0.53392505D-02  0.14971816D-01  0.00000000D+00
  0.00000000D+00  0.00000000D+00 -0.23018835D-03 -0.17649382D-03 -0.88082788D-04
  0.00000000D+00  0.00000000D+00  0.00000000D+00 -0.22744713D-02  0.00000000D+00
  0.38653044D-03  0.00000000D+00  0.24437718D-02  0.00000000D+00 -0.19920329D-03
  0.00000000D+00 -0.54928293D-02 -0.56168233D-02 -0.59824141D-02  0.00000000D+00
  0.00000000D+00  0.00000000D+00 -0.15375313D+00 -0.28364451D+00 -0.45789018D+00
 -0.59603697D+00 -0.50859942D+00 -0.17560716D+00  0.57922121D-02  0.26696252D-02
 -0.74859078D-02  0.19424546D-03  0.14893510D-03  0.74329052D-04 -0.10625466D-03
 -0.81469332D-04 -0.40658906D-04  0.00000000D+00  0.00000000D+00  0.00000000D+00
  0.11372357D-02 -0.25221720D-03  0.50322560D-04  0.00000000D+00 -0.12218859D-02
  0.12579780D-03 -0.18684888D-04  0.00000000D+00  0.26714783D-02  0.28833480D-02
  0.29912070D-02  0.19391098D-03  0.00000000D+00  0.00000000D+00 -0.15375313D+00
 -0.28364451D+00 -0.45789018D+00 -0.59603697D+00 -0.50859942D+00 -0.17560716D+00
  0.57922121D-02  0.26696252D-02 -0.74859078D-02  0.19424546D-03  0.14893510D-03
  0.74329052D-04  0.10625466D-03  0.81469332D-04  0.40658906D-04  0.00000000D+00
  0.00000000D+00  0.00000000D+00  0.11372357D-02 -0.25221720D-03 -0.50322560D-04
  0.00000000D+00 -0.12218859D-02  0.12579780D-03  0.18684888D-04  0.00000000D+00
  0.26714783D-02  0.28833480D-02  0.29912070D-02 -0.19391098D-03  0.00000000D+00
  0.00000000D+00  0.30750626D+00  0.56728901D+00  0.91578036D+00  0.11920739D+01
  0.10171988D+01  0.35121432D+00 -0.11584424D-01 -0.53392505D-02  0.14971816D-01
  0.00000000D+00  0.00000000D+00  0.00000000D+00  0.23018835D-03  0.17649382D-03
  0.88082788D-04  0.00000000D+00  0.00000000D+00  0.00000000D+00 -0.22744713D-02
  0.00000000D+00 -0.38653044D-03  0.00000000D+00  0.24437718D-02  0.00000000D+00
  0.19920329D-03  0.00000000D+00 -0.54928293D-02 -0.56168233D-02 -0.59824141D-02
  0.00000000D+00  0.00000000D+00  0.00000000D+00 -0.15375313D+00 -0.28364451D+00
 -0.45789018D+00 -0.59603697D+00 -0.50859942D+00 -0.17560716D+00  0.57922121D-02
  0.26696252D-02 -0.74859078D-02 -0.19424546D-03 -0.14893510D-03 -0.74329052D-04
  0.10625466D-03  0.81469332D-04  0.40658906D-04  0.00000000D+00  0.00000000D+00
  0.00000000D+00  0.11372357D-02  0.25221720D-03 -0.50322560D-04  0.00000000D+00
 -0.12218859D-02 -0.12579780D-03  0.18684888D-04  0.00000000D+00  0.26714783D-02
  0.28833480D-02  0.29912070D-02  0.19391098D-03  0.00000000D+00  0.00000000D+00
 -0.15375313D+00 -0.28364451D+00 -0.45789018D+00 -0.59603697D+00 -0.50859942D+00
 -0.17560716D+00  0.57922121D-02  0.26696252D-02 -0.74859078D-02 -0.19424546D-03
 -0.14893510D-03 -0.74329052D-04 -0.10625466D-03 -0.81469332D-04 -0.40658906D-04
  0.00000000D+00  0.00000000D+00  0.00000000D+00  0.11372357D-02  0.25221720D-03
  0.50322560D-04  0.00000000D+00 -0.12218859D-02 -0.12579780D-03 -0.18684888D-04
  0.00000000D+00  0.26714783D-02  0.28833480D-02  0.29912070D-02 -0.19391098D-03
  0.00000000D+00  0.00000000D+00 -0.39354841D-04 -0.66753259D-04 -0.75996226D-04
  0.11207418D-04  0.00000000D+00  0.34283824D-03  0.00000000D+00  0.19677421D-04
  0.33376630D-04  0.37998113D-04 -0.56037092D-05 -0.12695352D-03 -0.12294829D-03
  0.00000000D+00  0.19677421D-04  0.33376630D-04  0.37998113D-04 -0.56037092D-05
 -0.12695352D-03  0.12294829D-03  0.00000000D+00 -0.39354841D-04 -0.66753259D-04
 -0.75996226D-04  0.11207418D-04  0.00000000D+00 -0.34283824D-03  0.00000000D+00
  0.19677421D-04  0.33376630D-04  0.37998113D-04 -0.56037092D-05  0.12695352D-03
  0.12294829D-03  0.00000000D+00  0.19677421D-04  0.33376630D-04  0.37998113D-04
 -0.56037092D-05  0.12695352D-03 -0.12294829D-03  0.00000000D+00
MO    5     MO 0.0        OCC NO =    2.0000000  ORB. ENERGY =  -10.197989
  0.00000000D+00  0.00000000D+00  0.00000000D+00  0.00000000D+00  0.00000000D+00
  0.00000000D+00 -0.00000000D+00 -0.00000000D+00  0.00000000D+00 -0.21840232D-03
 -0.16745705D-03 -0.83572804D-04  0.00000000D+00  0.00000000D+00  0.00000000D+00
  0.00000000D+00  0.00000000D+00  0.00000000D+00  0.00000000D+00  0.19594023D-03
  0.00000000D+00  0.00000000D+00  0.00000000D+00 -0.91314282D-04  0.00000000D+00
  0.00000000D+00  0.00000000D+00  0.00000000D+00  0.00000000D+00  0.32382423D-03
  0.00000000D+00  0.00000000D+00  0.26630824D+00  0.49128670D+00  0.79308906D+00
  0.10323663D+01  0.88092004D+00  0.30416052D+00 -0.10032406D-01 -0.46239266D-02
  0.12965973D-01 -0.11804068D-03 -0.90506106D-04 -0.45168890D-04 -0.19424546D-03
 -0.14893510D-03 -0.74329052D-04  0.00000000D+00  0.00000000D+00  0.00000000D+00
 -0.19697500D-02  0.24091278D-03  0.25221720D-03  0.00000000D+00  0.21163685D-02
 -0.12657390D-03 -0.12579780D-03  0.00000000D+00 -0.49075762D-02 -0.47136652D-02
 -0.51809226D-02 -0.12039442D-04  0.00000000D+00  0.00000000D+00 -0.26630824D+00
 -0.49128670D+00 -0.79308906D+00 -0.10323663D+01 -0.88092004D+00 -0.30416052D+00
  0.10032406D-01  0.46239266D-02 -0.12965973D-01  0.11804068D-03  0.90506106D-04
  0.45168890D-04 -0.19424546D-03 -0.14893510D-03 -0.74329052D-04  0.00000000D+00
  0.00000000D+00  0.00000000D+00  0.19697500D-02 -0.24091278D-03  0.25221720D-03
  0.00000000D+00 -0.21163685D-02  0.12657390D-03 -0.12579780D-03  0.00000000D+00
  0.49075762D-02  0.47136652D-02  0.51809226D-02 -0.12039442D-04  0.00000000D+00
  0.00000000D+00  0.00000000D+00  0.00000000D+00  0.00000000D+00  0.00000000D+00
  0.00000000D+00  0.00000000D+00 -0.00000000D+00 -0.00000000D+00  0.00000000D+00
  0.21840232D-03  0.16745705D-03  0.83572804D-04  0.00000000D+00  0.00000000D+00
  0.00000000D+00  0.00000000D+00  0.00000000D+00  0.00000000D+00  0.00000000D+00
 -0.19594023D-03  0.00000000D+00  0.00000000D+00  0.00000000D+00  0.91314282D-04
  0.00000000D+00  0.00000000D+00  0.00000000D+00  0.00000000D+00  0.00000000D+00
  0.32382423D-03  0.00000000D+00  0.00000000D+00  0.26630824D+00  0.49128670D+00
  0.79308906D+00  0.10323663D+01  0.88092004D+00  0.30416052D+00 -0.10032406D-01
 -0.46239266D-02  0.12965973D-01  0.11804068D-03  0.90506106D-04  0.45168890D-04
  0.19424546D-03  0.14893510D-03  0.74329052D-04  0.00000000D+00  0.00000000D+00
  0.00000000D+00 -0.19697500D-02 -0.24091278D-03 -0.25221720D-03  0.00000000D+00
  0.21163685D-02  0.12657390D-03  0.12579780D-03  0.00000000D+00 -0.49075762D-02
 -0.47136652D-02 -0.51809226D-02 -0.12039442D-04  0.00000000D+00  0.00000000D+00
 -0.26630824D+00 -0.49128670D+00 -0.79308906D+00 -0.10323663D+01 -0.88092004D+00
 -0.30416052D+00  0.10032406D-01  0.46239266D-02 -0.12965973D-01 -0.11804068D-03
 -0.90506106D-04 -0.45168890D-04  0.19424546D-03  0.14893510D-03  0.74329052D-04
  0.00000000D+00  0.00000000D+00  0.00000000D+00  0.19697500D-02  0.24091278D-03
 -0.25221720D-03  0.00000000D+00 -0.21163685D-02 -0.12657390D-03  0.12579780D-03
  0.00000000D+00  0.49075762D-02  0.47136652D-02  0.51809226D-02 -0.12039442D-04
  0.00000000D+00  0.00000000D+00  0.00000000D+00  0.00000000D+00  0.00000000D+00
  0.00000000D+00 -0.49651647D-04  0.00000000D+00  0.00000000D+00 -0.34082292D-04
 -0.57810018D-04 -0.65814662D-04  0.97059090D-05  0.26954159D-03  0.12695352D-03
  0.00000000D+00  0.34082292D-04  0.57810018D-04  0.65814662D-04 -0.97059090D-05
 -0.26954159D-03  0.12695352D-03  0.00000000D+00  0.00000000D+00  0.00000000D+00
  0.00000000D+00  0.00000000D+00  0.49651647D-04  0.00000000D+00  0.00000000D+00
 -0.34082292D-04 -0.57810018D-04 -0.65814662D-04  0.97059090D-05 -0.26954159D-03
 -0.12695352D-03  0.00000000D+00  0.34082292D-04  0.57810018D-04  0.65814662D-04
 -0.97059090D-05  0.26954159D-03 -0.12695352D-03  0.00000000D+00
MO    6     MO 0.0        OCC NO =    2.0000000  ORB. ENERGY =  -10.197725
  0.21753165D+00  0.40130342D+00  0.64782815D+00  0.84327977D+00  0.71957215D+00
  0.24845097D+00 -0.84376348D-02 -0.38888981D-02  0.10904876D-01  0.00000000D+00
  0.00000000D+00  0.00000000D+00 -0.28155855D-03 -0.21588124D-03 -0.10773987D-03
  0.00000000D+00  0.00000000D+00  0.00000000D+00 -0.40273643D-02  0.00000000D+00
  0.14581846D-02  0.00000000D+00  0.45570137D-02  0.00000000D+00 -0.35651569D-03
  0.00000000D+00 -0.36841440D-02 -0.37590920D-02 -0.40123134D-02  0.00000000D+00
  0.00000000D+00  0.00000000D+00 -0.21753165D+00 -0.40130342D+00 -0.64782815D+00
 -0.84327977D+00 -0.71957215D+00 -0.24845097D+00  0.84376348D-02  0.38888981D-02
 -0.10904876D-01  0.24383686D-03  0.18695863D-03  0.93305462D-04  0.14077927D-03
  0.10794062D-03  0.53869934D-04  0.00000000D+00  0.00000000D+00  0.00000000D+00
  0.40273643D-02 -0.12628249D-02 -0.72909231D-03  0.00000000D+00 -0.45570137D-02
  0.30875164D-03  0.17825784D-03  0.00000000D+00  0.37403550D-02  0.37028810D-02
  0.40123134D-02  0.64906847D-04  0.00000000D+00  0.00000000D+00  0.21753165D+00
  0.40130342D+00  0.64782815D+00  0.84327977D+00  0.71957215D+00  0.24845097D+00
 -0.84376348D-02 -0.38888981D-02  0.10904876D-01 -0.24383686D-03 -0.18695863D-03
 -0.93305462D-04  0.14077927D-03  0.10794062D-03  0.53869934D-04  0.00000000D+00
  0.00000000D+00  0.00000000D+00 -0.40273643D-02  0.12628249D-02 -0.72909231D-03
  0.00000000D+00  0.45570137D-02 -0.30875164D-03  0.17825784D-03  0.00000000D+00
 -0.37403550D-02 -0.37028810D-02 -0.40123134D-02  0.64906847D-04  0.00000000D+00
  0.00000000D+00 -0.21753165D+00 -0.40130342D+00 -0.64782815D+00 -0.84327977D+00
 -0.71957215D+00 -0.24845097D+00  0.84376348D-02  0.38888981D-02 -0.10904876D-01
  0.00000000D+00  0.00000000D+00  0.00000000D+00 -0.28155855D-03 -0.21588124D-03
 -0.10773987D-03  0.00000000D+00  0.00000000D+00  0.00000000D+00  0.40273643D-02
  0.00000000D+00  0.14581846D-02  0.00000000D+00 -0.45570137D-02  0.00000000D+00
 -0.35651569D-03  0.00000000D+00  0.36841440D-02  0.37590920D-02  0.40123134D-02
  0.00000000D+00  0.00000000D+00  0.00000000D+00  0.21753165D+00  0.40130342D+00
  0.64782815D+00  0.84327977D+00  0.71957215D+00  0.24845097D+00 -0.84376348D-02
 -0.38888981D-02  0.10904876D-01  0.24383686D-03  0.18695863D-03  0.93305462D-04
  0.14077927D-03  0.10794062D-03  0.53869934D-04  0.00000000D+00  0.00000000D+00
  0.00000000D+00 -0.40273643D-02 -0.12628249D-02 -0.72909231D-03  0.00000000D+00
  0.45570137D-02  0.30875164D-03  0.17825784D-03  0.00000000D+00 -0.37403550D-02
 -0.37028810D-02 -0.40123134D-02 -0.64906847D-04  0.00000000D+00  0.00000000D+00
 -0.21753165D+00 -0.40130342D+00 -0.64782815D+00 -0.84327977D+00 -0.71957215D+00
 -0.24845097D+00  0.84376348D-02  0.38888981D-02 -0.10904876D-01 -0.24383686D-03
 -0.18695863D-03 -0.93305462D-04  0.14077927D-03  0.10794062D-03  0.53869934D-04
  0.00000000D+00  0.00000000D+00  0.00000000D+00  0.40273643D-02  0.12628249D-02
 -0.72909231D-03  0.00000000D+00 -0.45570137D-02 -0.30875164D-03  0.17825784D-03
  0.00000000D+00  0.37403550D-02  0.37028810D-02  0.40123134D-02 -0.64906847D-04
  0.00000000D+00  0.00000000D+00 -0.65486352D-04 -0.11107725D-03 -0.12645752D-03
 -0.36211605D-03  0.00000000D+00  0.28908268D-03  0.00000000D+00  0.65486352D-04
  0.11107725D-03  0.12645752D-03  0.36211605D-03 -0.25035295D-03 -0.14454134D-03
  0.00000000D+00 -0.65486352D-04 -0.11107725D-03 -0.12645752D-03 -0.36211605D-03
  0.25035295D-03 -0.14454134D-03  0.00000000D+00  0.65486352D-04  0.11107725D-03
  0.12645752D-03  0.36211605D-03  0.00000000D+00  0.28908268D-03  0.00000000D+00
 -0.65486352D-04 -0.11107725D-03 -0.12645752D-03 -0.36211605D-03 -0.25035295D-03
 -0.14454134D-03  0.00000000D+00  0.65486352D-04  0.11107725D-03  0.12645752D-03
  0.36211605D-03  0.25035295D-03 -0.14454134D-03  0.00000000D+00