 Entering Gaussian System, Link 0=g09
 Input=HF.com
 Output=HF.log
 Initial command:
 /programs/64bit/g09/g09-gfortran/bin/l1.exe /data/scratch/Gau-3762.inp -scrdir=/data/scratch/
 Entering Link 1 = /programs/64bit/g09/g09-gfortran/bin/l1.exe PID=      3763.
  
 Copyright (c) 1988,1990,1992,1993,1995,1998,2003,2009, Gaussian, Inc.
                  All Rights Reserved.
  
 This is part of the Gaussian(R) 09 program.  It is based on
 the Gaussian(R) 03 system (copyright 2003, Gaussian, Inc.),
 the Gaussian(R) 98 system (copyright 1998, Gaussian, Inc.),
 the Gaussian(R) 94 system (copyright 1995, Gaussian, Inc.),
 the Gaussian 92(TM) system (copyright 1992, Gaussian, Inc.),
 the Gaussian 90(TM) system (copyright 1990, Gaussian, Inc.),
 the Gaussian 88(TM) system (copyright 1988, Gaussian, Inc.),
 the Gaussian 86(TM) system (copyright 1986, Carnegie Mellon
 University), and the Gaussian 82(TM) system (copyright 1983,
 Carnegie Mellon University). Gaussian is a federally registered
 trademark of Gaussian, Inc.
  
 This software contains proprietary and confidential information,
 including trade secrets, belonging to Gaussian, Inc.
  
 This software is provided under written license and may be
 used, copied, transmitted, or stored only in accord with that
 written license.
  
 The following legend is applicable only to US Government
 contracts under FAR:
  
                    RESTRICTED RIGHTS LEGEND
  
 Use, reproduction and disclosure by the US Government is
 subject to restrictions as set forth in subparagraphs (a)
 and (c) of the Commercial Computer Software - Restricted
 Rights clause in FAR 52.227-19.
  
 Gaussian, Inc.
 340 Quinnipiac St., Bldg. 40, Wallingford CT 06492
  
  
 ---------------------------------------------------------------
 Warning -- This program may not be used in any manner that
 competes with the business of Gaussian, Inc. or will provide
 assistance to any competitor of Gaussian, Inc.  The licensee
 of this program is prohibited from giving any competitor of
 Gaussian, Inc. access to this program.  By using this program,
 the user acknowledges that Gaussian, Inc. is engaged in the
 business of creating and licensing software in the field of
 computational chemistry and represents and warrants to the
 licensee that it is not a competitor of Gaussian, Inc. and that
 it will not use this program in any manner prohibited above.
 ---------------------------------------------------------------
  

 Cite this work as:
 Gaussian 09, Revision A.02,
 M. J. Frisch, G. W. Trucks, H. B. Schlegel, G. E. Scuseria, 
 M. A. Robb, J. R. Cheeseman, G. Scalmani, V. Barone, B. Mennucci, 
 G. A. Petersson, H. Nakatsuji, M. Caricato, X. Li, H. P. Hratchian, 
 A. F. Izmaylov, J. Bloino, G. Zheng, J. L. Sonnenberg, M. Hada, 
 M. Ehara, K. Toyota, R. Fukuda, J. Hasegawa, M. Ishida, T. Nakajima, 
 Y. Honda, O. Kitao, H. Nakai, T. Vreven, J. A. Montgomery, Jr., 
 J. E. Peralta, F. Ogliaro, M. Bearpark, J. J. Heyd, E. Brothers, 
 K. N. Kudin, V. N. Staroverov, R. Kobayashi, J. Normand, 
 K. Raghavachari, A. Rendell, J. C. Burant, S. S. Iyengar, J. Tomasi, 
 M. Cossi, N. Rega, J. M. Millam, M. Klene, J. E. Knox, J. B. Cross, 
 V. Bakken, C. Adamo, J. Jaramillo, R. Gomperts, R. E. Stratmann, 
 O. Yazyev, A. J. Austin, R. Cammi, C. Pomelli, J. W. Ochterski, 
 R. L. Martin, K. Morokuma, V. G. Zakrzewski, G. A. Voth, 
 P. Salvador, J. J. Dannenberg, S. Dapprich, A. D. Daniels, 
 O. Farkas, J. B. Foresman, J. V. Ortiz, J. Cioslowski, 
 and D. J. Fox, Gaussian, Inc., Wallingford CT, 2009.
 
 ******************************************
 Gaussian 09:  EM64L-G09RevA.02 11-Jun-2009
                24-May-2024 
 ******************************************
 -----------------------------
 #p B3LYP/6-31+g** opt out=wfn
 -----------------------------
 1/14=-1,18=20,19=15,26=3,38=1/1,3;
 2/9=110,12=2,17=6,18=5,40=1/2;
 3/5=1,6=6,7=111,11=2,16=1,25=1,30=1,71=1,74=-5/1,2,3;
 4//1;
 5/5=2,38=5/2;
 6/7=2,8=2,9=2,10=2,28=1/1;
 7//1,2,3,16;
 1/14=-1,18=20,19=15/3(2);
 2/9=110/2;
 99/6=100/99;
 2/9=110/2;
 3/5=1,6=6,7=111,11=2,16=1,25=1,30=1,71=1,74=-5/1,2,3;
 4/5=5,16=3/1;
 5/5=2,38=5/2;
 7//1,2,3,16;
 1/14=-1,18=20,19=15/3(-5);
 2/9=110/2;
 6/7=2,8=2,9=2,10=2,19=2,28=1/1;
 99/6=100,9=1/99;
 Leave Link    1 at Fri May 24 11:29:11 2024, MaxMem=          0 cpu:       0.1
 (Enter /programs/64bit/g09/g09-gfortran/bin/l101.exe)
 -----------------
 hydrogen fluoride
 -----------------
 Symbolic Z-matrix:
 Charge =  0 Multiplicity = 1
 h
 f                    1    fh2
       Variables:
  fh2                   1.008                    
 
 NAtoms=      2 NQM=      2 NQMF=      0 NMic=      0 NMicF=      0 NTot=      2.
                    Isotopes and Nuclear Properties:
 (Nuclear quadrupole moments (NQMom) in fm**2, nuclear magnetic moments (NMagM)
  in nuclear magnetons)

  Atom         1           2
 IAtWgt=           1          19
 AtmWgt=   1.0078250  18.9984032
 NucSpn=           1           1
 AtZEff=   0.0000000   0.0000000
 NQMom=    0.0000000   0.0000000
 NMagM=    2.7928460   2.6288670
 Leave Link  101 at Fri May 24 11:29:12 2024, MaxMem=   33554432 cpu:       0.1
 (Enter /programs/64bit/g09/g09-gfortran/bin/l103.exe)

 GradGradGradGradGradGradGradGradGradGradGradGradGradGradGradGradGradGrad
 Berny optimization.
 Initialization pass.
                           ----------------------------
                           !    Initial Parameters    !
                           ! (Angstroms and Degrees)  !
 --------------------------                            --------------------------
 ! Name  Definition              Value          Derivative Info.                !
 --------------------------------------------------------------------------------
 ! R1    R(1,2)                  1.008          estimate D2E/DX2                !
 --------------------------------------------------------------------------------
 Trust Radius=3.00D-01 FncErr=1.00D-07 GrdErr=1.00D-06
 Number of steps in this run=  20 maximum allowed number of steps= 100.
 GradGradGradGradGradGradGradGradGradGradGradGradGradGradGradGradGradGrad

 Leave Link  103 at Fri May 24 11:29:12 2024, MaxMem=   33554432 cpu:       0.0
 (Enter /programs/64bit/g09/g09-gfortran/bin/l202.exe)
                          Input orientation:                          
 ---------------------------------------------------------------------
 Center     Atomic      Atomic             Coordinates (Angstroms)
 Number     Number       Type             X           Y           Z
 ---------------------------------------------------------------------
      1          1           0        0.000000    0.000000    0.000000
      2          9           0        0.000000    0.000000    1.008000
 ---------------------------------------------------------------------
 Stoichiometry    FH
 Framework group  C*V[C*(HF)]
 Deg. of freedom     1
 Full point group                 C*V     NOp   4
 Largest Abelian subgroup         C2V     NOp   4
 Largest concise Abelian subgroup C1      NOp   1
                         Standard orientation:                         
 ---------------------------------------------------------------------
 Center     Atomic      Atomic             Coordinates (Angstroms)
 Number     Number       Type             X           Y           Z
 ---------------------------------------------------------------------
      1          1           0        0.000000    0.000000   -0.907200
      2          9           0        0.000000    0.000000    0.100800
 ---------------------------------------------------------------------
 Rotational constants (GHZ):      0.0000000    519.7076472    519.7076472
 Leave Link  202 at Fri May 24 11:29:12 2024, MaxMem=   33554432 cpu:       0.0
 (Enter /programs/64bit/g09/g09-gfortran/bin/l301.exe)
 Standard basis: 6-31+G(d,p) (6D, 7F)
 Ernie: Thresh=  0.10000D-02 Tol=  0.10000D-05 Strict=F.
 There are    13 symmetry adapted basis functions of A1  symmetry.
 There are     1 symmetry adapted basis functions of A2  symmetry.
 There are     5 symmetry adapted basis functions of B1  symmetry.
 There are     5 symmetry adapted basis functions of B2  symmetry.
 Integral buffers will be    131072 words long.
 Raffenetti 2 integral format.
 Two-electron integral symmetry is turned on.
    24 basis functions,    39 primitive gaussians,    24 cartesian basis functions
     5 alpha electrons        5 beta electrons
       nuclear repulsion energy         4.7247965053 Hartrees.
 IExCor=  402 DFT=T Ex+Corr=B3LYP ExCW=0 ScaHFX=  0.200000
 ScaDFX=  0.800000  0.720000  1.000000  0.810000 ScalE2=  1.000000  1.000000
 IRadAn=      0 IRanWt=     -1 IRanGd=            0 ICorTp=0
 NAtoms=    2 NActive=    2 NUniq=    2 SFac= 7.50D-01 NAtFMM=   80 NAOKFM=F Big=F
 Leave Link  301 at Fri May 24 11:29:12 2024, MaxMem=   33554432 cpu:       0.0
 (Enter /programs/64bit/g09/g09-gfortran/bin/l302.exe)
 NPDir=0 NMtPBC=     1 NCelOv=     1 NCel=       1 NClECP=     1 NCelD=      1
         NCelK=      1 NCelE2=     1 NClLst=     1 CellRange=     0.0.
 One-electron integrals computed using PRISM.
 NBasis=    24 RedAO= T  NBF=    13     1     5     5
 NBsUse=    24 1.00D-06 NBFU=    13     1     5     5
 Precomputing XC quadrature grid using
 IXCGrd= 2 IRadAn=           0 IRanWt=          -1 IRanGd=           0 AccXCQ= 1.00D-10.
 NRdTot=     125 NPtTot=       15630 NUsed=       16544 NTot=       16576
 NSgBfM=    24    24    24    24    24 NAtAll=     2     2.
 Leave Link  302 at Fri May 24 11:29:12 2024, MaxMem=   33554432 cpu:       0.1
 (Enter /programs/64bit/g09/g09-gfortran/bin/l303.exe)
 DipDrv:  MaxL=1.
 Leave Link  303 at Fri May 24 11:29:12 2024, MaxMem=   33554432 cpu:       0.0
 (Enter /programs/64bit/g09/g09-gfortran/bin/l401.exe)
 Harris functional with IExCor=  402 diagonalized for initial guess.
 ExpMin= 1.08D-01 ExpMax= 7.00D+03 ExpMxC= 1.05D+03 IAcc=1 IRadAn=         1 AccDes= 0.00D+00
 HarFok:  IExCor=  402 AccDes= 0.00D+00 IRadAn=         1 IDoV= 1
 ScaDFX=  1.000000  1.000000  1.000000  1.000000
 FoFCou: FMM=F IPFlag=           0 FMFlag=      100000 FMFlg1=           0
         NFxFlg=           0 DoJE=T BraDBF=F KetDBF=T FulRan=T
         Omega=  0.000000  0.000000  1.000000  0.000000  0.000000 ICntrl=     500 IOpCl=  0
         NMat0=    1 NMatS0=    1 NMatT0=    0 NMatD0=    1 NMtDS0=    0 NMtDT0=    0
         I1Cent=           4 NGrid=           0.
 Petite list used in FoFCou.
 Harris En= -100.459330657106    
 Initial guess orbital symmetries:
       Occupied  (SG) (SG) (SG) (PI) (PI)
       Virtual   (SG) (SG) (PI) (PI) (SG) (SG) (PI) (PI) (SG) (PI)
                 (PI) (SG) (DLTA) (DLTA) (SG) (PI) (PI) (SG) (SG)
 The electronic state of the initial guess is 1-SG.
 Leave Link  401 at Fri May 24 11:29:12 2024, MaxMem=   33554432 cpu:       0.1
 (Enter /programs/64bit/g09/g09-gfortran/bin/l502.exe)
 Closed shell SCF:
 Requested convergence on RMS density matrix=1.00D-08 within 128 cycles.
 Requested convergence on MAX density matrix=1.00D-06.
 Requested convergence on             energy=1.00D-06.
 No special actions if energy rises.
 Using DIIS extrapolation, IDIIS=  1040.
 Integral symmetry usage will be decided dynamically.
        16513 words used for storage of precomputed grid.
 Keep R1 ints in memory in canonical form, NReq=940089.
 IEnd=       36735 IEndB=       36735 NGot=    33554432 MDV=    33489760
 LenX=    33489760 LenY=    33488743
 Symmetry not used in FoFDir.
 MinBra= 0 MaxBra= 2 Meth= 1.
 IRaf=       0 NMat=   1 IRICut=       1 DoRegI=T DoRafI=F ISym2E= 0 JSym2E=0.
 Integral accuracy reduced to 1.0D-05 until final iterations.

 Cycle   1  Pass 0  IDiag  1:
 E= -100.419578762492    
 DIIS: error= 3.56D-02 at cycle   1 NSaved=   1.
 NSaved= 1 IEnMin= 1 EnMin= -100.419578762492     IErMin= 1 ErrMin= 3.56D-02
 ErrMax= 3.56D-02 EMaxC= 1.00D-01 BMatC= 3.69D-02 BMatP= 3.69D-02
 IDIUse=3 WtCom= 6.44D-01 WtEn= 3.56D-01
 Coeff-Com:  0.100D+01
 Coeff-En:   0.100D+01
 Coeff:      0.100D+01
 Gap=     0.332 Goal=   None    Shift=    0.000
 GapD=    0.332 DampG=1.000 DampE=0.500 DampFc=0.5000 IDamp=-1.
 Damping current iteration by 5.00D-01
 RMSDP=1.16D-02 MaxDP=1.09D-01              OVMax= 1.50D-01

 Cycle   2  Pass 0  IDiag  1:
 E= -100.425362026005     Delta-E=       -0.005783263513 Rises=F Damp=T
 DIIS: error= 1.54D-02 at cycle   2 NSaved=   2.
 NSaved= 2 IEnMin= 2 EnMin= -100.425362026005     IErMin= 2 ErrMin= 1.54D-02
 ErrMax= 1.54D-02 EMaxC= 1.00D-01 BMatC= 5.52D-03 BMatP= 3.69D-02
 IDIUse=3 WtCom= 8.46D-01 WtEn= 1.54D-01
 Coeff-Com:  0.260D+00 0.740D+00
 Coeff-En:   0.393D+00 0.607D+00
 Coeff:      0.281D+00 0.719D+00
 Gap=     0.419 Goal=   None    Shift=    0.000
 RMSDP=1.42D-03 MaxDP=1.22D-02 DE=-5.78D-03 OVMax= 8.12D-02

 Cycle   3  Pass 0  IDiag  1:
 E= -100.445592288978     Delta-E=       -0.020230262973 Rises=F Damp=F
 DIIS: error= 2.58D-03 at cycle   3 NSaved=   3.
 NSaved= 3 IEnMin= 3 EnMin= -100.445592288978     IErMin= 3 ErrMin= 2.58D-03
 ErrMax= 2.58D-03 EMaxC= 1.00D-01 BMatC= 1.03D-04 BMatP= 5.52D-03
 IDIUse=3 WtCom= 9.74D-01 WtEn= 2.58D-02
 Coeff-Com:  0.583D-01 0.708D-01 0.871D+00
 Coeff-En:   0.000D+00 0.000D+00 0.100D+01
 Coeff:      0.568D-01 0.690D-01 0.874D+00
 Gap=     0.429 Goal=   None    Shift=    0.000
 RMSDP=3.09D-04 MaxDP=1.71D-03 DE=-2.02D-02 OVMax= 4.06D-03

 Cycle   4  Pass 0  IDiag  1:
 E= -100.445670493615     Delta-E=       -0.000078204637 Rises=F Damp=F
 DIIS: error= 3.35D-04 at cycle   4 NSaved=   4.
 NSaved= 4 IEnMin= 4 EnMin= -100.445670493615     IErMin= 4 ErrMin= 3.35D-04
 ErrMax= 3.35D-04 EMaxC= 1.00D-01 BMatC= 2.37D-06 BMatP= 1.03D-04
 IDIUse=3 WtCom= 9.97D-01 WtEn= 3.35D-03
 Coeff-Com:  0.429D-02-0.919D-02 0.160D+00 0.845D+00
 Coeff-En:   0.000D+00 0.000D+00 0.000D+00 0.100D+01
 Coeff:      0.427D-02-0.916D-02 0.159D+00 0.846D+00
 Gap=     0.429 Goal=   None    Shift=    0.000
 RMSDP=3.79D-05 MaxDP=1.85D-04 DE=-7.82D-05 OVMax= 4.09D-04

 Cycle   5  Pass 0  IDiag  1:
 E= -100.445672197372     Delta-E=       -0.000001703757 Rises=F Damp=F
 DIIS: error= 2.63D-05 at cycle   5 NSaved=   5.
 NSaved= 5 IEnMin= 5 EnMin= -100.445672197372     IErMin= 5 ErrMin= 2.63D-05
 ErrMax= 2.63D-05 EMaxC= 1.00D-01 BMatC= 1.41D-08 BMatP= 2.37D-06
 IDIUse=1 WtCom= 1.00D+00 WtEn= 0.00D+00
 Coeff-Com:  0.334D-03-0.106D-02 0.214D-02 0.196D-01 0.979D+00
 Coeff:      0.334D-03-0.106D-02 0.214D-02 0.196D-01 0.979D+00
 Gap=     0.429 Goal=   None    Shift=    0.000
 RMSDP=2.55D-06 MaxDP=2.39D-05 DE=-1.70D-06 OVMax= 2.97D-05

 Initial convergence to 1.0D-05 achieved.  Increase integral accuracy.
 Cycle   6  Pass 1  IDiag  1:
 E= -100.445671011586     Delta-E=        0.000001185786 Rises=F Damp=F
 DIIS: error= 2.15D-06 at cycle   1 NSaved=   1.
 NSaved= 1 IEnMin= 1 EnMin= -100.445671011586     IErMin= 1 ErrMin= 2.15D-06
 ErrMax= 2.15D-06 EMaxC= 1.00D-01 BMatC= 8.30D-11 BMatP= 8.30D-11
 IDIUse=1 WtCom= 1.00D+00 WtEn= 0.00D+00
 Coeff-Com:  0.100D+01
 Coeff:      0.100D+01
 Gap=     0.429 Goal=   None    Shift=    0.000
 RMSDP=2.55D-06 MaxDP=2.39D-05 DE= 1.19D-06 OVMax= 5.90D-06

 Cycle   7  Pass 1  IDiag  1:
 E= -100.445671011587     Delta-E=       -0.000000000001 Rises=F Damp=F
 DIIS: error= 2.08D-06 at cycle   2 NSaved=   2.
 NSaved= 2 IEnMin= 2 EnMin= -100.445671011587     IErMin= 2 ErrMin= 2.08D-06
 ErrMax= 2.08D-06 EMaxC= 1.00D-01 BMatC= 1.10D-10 BMatP= 8.30D-11
 IDIUse=1 WtCom= 1.00D+00 WtEn= 0.00D+00
 Coeff-Com:  0.541D+00 0.459D+00
 Coeff:      0.541D+00 0.459D+00
 Gap=     0.429 Goal=   None    Shift=    0.000
 RMSDP=2.61D-07 MaxDP=2.49D-06 DE=-6.96D-13 OVMax= 3.33D-06

 Cycle   8  Pass 1  IDiag  1:
 E= -100.445671011655     Delta-E=       -0.000000000068 Rises=F Damp=F
 DIIS: error= 4.52D-07 at cycle   3 NSaved=   3.
 NSaved= 3 IEnMin= 3 EnMin= -100.445671011655     IErMin= 3 ErrMin= 4.52D-07
 ErrMax= 4.52D-07 EMaxC= 1.00D-01 BMatC= 4.85D-12 BMatP= 8.30D-11
 IDIUse=1 WtCom= 1.00D+00 WtEn= 0.00D+00
 Coeff-Com:  0.458D-01 0.183D+00 0.771D+00
 Coeff:      0.458D-01 0.183D+00 0.771D+00
 Gap=     0.429 Goal=   None    Shift=    0.000
 RMSDP=3.96D-08 MaxDP=3.78D-07 DE=-6.81D-11 OVMax= 4.48D-07

 Cycle   9  Pass 1  IDiag  1:
 E= -100.445671011658     Delta-E=       -0.000000000003 Rises=F Damp=F
 DIIS: error= 5.62D-08 at cycle   4 NSaved=   4.
 NSaved= 4 IEnMin= 4 EnMin= -100.445671011658     IErMin= 4 ErrMin= 5.62D-08
 ErrMax= 5.62D-08 EMaxC= 1.00D-01 BMatC= 3.96D-14 BMatP= 4.85D-12
 IDIUse=1 WtCom= 1.00D+00 WtEn= 0.00D+00
 Coeff-Com: -0.539D-02 0.343D-01 0.159D+00 0.812D+00
 Coeff:     -0.539D-02 0.343D-01 0.159D+00 0.812D+00
 Gap=     0.429 Goal=   None    Shift=    0.000
 RMSDP=4.68D-09 MaxDP=2.42D-08 DE=-2.90D-12 OVMax= 6.29D-08

 SCF Done:  E(RB3LYP) =  -100.445671012     A.U. after    9 cycles
             Convg  =    0.4678D-08             -V/T =  2.0092
 KE= 9.953206624880D+01 PE=-2.490793752123D+02 EE= 4.437684144656D+01
 Leave Link  502 at Fri May 24 11:29:12 2024, MaxMem=   33554432 cpu:       0.2
 (Enter /programs/64bit/g09/g09-gfortran/bin/l601.exe)
 Copying SCF densities to generalized density rwf, IOpCl= 0 IROHF=0.

 **********************************************************************

            Population analysis using the SCF density.

 **********************************************************************

 Orbital symmetries:
       Occupied  (SG) (SG) (SG) (PI) (PI)
       Virtual   (SG) (SG) (PI) (PI) (SG) (SG) (PI) (PI) (SG) (PI)
                 (PI) (SG) (DLTA) (DLTA) (SG) (PI) (PI) (SG) (SG)
 The electronic state is 1-SG.
 Alpha  occ. eigenvalues --  -24.71763  -1.18799  -0.54011  -0.41544  -0.41544
 Alpha virt. eigenvalues --    0.01334   0.18630   0.20180   0.20180   0.24601
 Alpha virt. eigenvalues --    0.83813   1.42704   1.42704   1.50541   1.60652
 Alpha virt. eigenvalues --    1.60652   1.62995   1.84286   1.84286   2.34312
 Alpha virt. eigenvalues --    2.58912   2.58912   3.53463   4.31748
          Condensed to atoms (all electrons):
              1          2
     1  H    0.371042   0.210729
     2  F    0.210729   9.207499
 Mulliken atomic charges:
              1
     1  H    0.418229
     2  F   -0.418229
 Sum of Mulliken atomic charges =  -0.00000
 Mulliken charges with hydrogens summed into heavy atoms:
              1
     2  F   -0.000000
 Sum of Mulliken charges with hydrogens summed into heavy atoms =  -0.00000
 Electronic spatial extent (au):  <R**2>=             14.8036
 Charge=             -0.0000 electrons
 Dipole moment (field-independent basis, Debye):
    X=              0.0000    Y=              0.0000    Z=             -2.1228  Tot=              2.1228
 Quadrupole moment (field-independent basis, Debye-Ang):
   XX=             -6.0089   YY=             -6.0089   ZZ=             -3.5013
   XY=              0.0000   XZ=              0.0000   YZ=              0.0000
 Traceless Quadrupole moment (field-independent basis, Debye-Ang):
   XX=             -0.8359   YY=             -0.8359   ZZ=              1.6717
   XY=              0.0000   XZ=              0.0000   YZ=              0.0000
 Octapole moment (field-independent basis, Debye-Ang**2):
  XXX=              0.0000  YYY=              0.0000  ZZZ=             -2.3284  XYY=              0.0000
  XXY=              0.0000  XXZ=             -0.2072  XZZ=              0.0000  YZZ=              0.0000
  YYZ=             -0.2072  XYZ=              0.0000
 Hexadecapole moment (field-independent basis, Debye-Ang**3):
 XXXX=             -4.5249 YYYY=             -4.5249 ZZZZ=             -3.7960 XXXY=              0.0000
 XXXZ=              0.0000 YYYX=              0.0000 YYYZ=              0.0000 ZZZX=              0.0000
 ZZZY=              0.0000 XXYY=             -1.5083 XXZZ=             -1.7242 YYZZ=             -1.7242
 XXYZ=              0.0000 YYXZ=              0.0000 ZZXY=              0.0000
 N-N= 4.724796505268D+00 E-N=-2.490793753642D+02  KE= 9.953206624880D+01
 Symmetry A1   KE= 8.698973626925D+01
 Symmetry A2   KE= 0.000000000000D+00
 Symmetry B1   KE= 6.271164989778D+00
 Symmetry B2   KE= 6.271164989778D+00
 No NMR shielding tensors so no spin-rotation constants.
 Leave Link  601 at Fri May 24 11:29:12 2024, MaxMem=   33554432 cpu:       0.1
 (Enter /programs/64bit/g09/g09-gfortran/bin/l701.exe)
 Compute integral first derivatives.
 ... and contract with generalized density number  0.
 Leave Link  701 at Fri May 24 11:29:12 2024, MaxMem=   33554432 cpu:       0.0
 (Enter /programs/64bit/g09/g09-gfortran/bin/l702.exe)
 L702 exits ... SP integral derivatives will be done elsewhere.
 Leave Link  702 at Fri May 24 11:29:13 2024, MaxMem=   33554432 cpu:       0.0
 (Enter /programs/64bit/g09/g09-gfortran/bin/l703.exe)
 Compute integral first derivatives, UseDBF=F ICtDFT=           0.
 Integral derivatives from FoFDir, PRISM(SPDF).
 Calling FoFJK, ICntrl=      2127 FMM=F ISym2X=1 I1Cent= 0 IOpClX= 0 NMat=1 NMatS=1 NMatT=0.
 FoFCou: FMM=F IPFlag=           0 FMFlag=      100000 FMFlg1=         800
         NFxFlg=           0 DoJE=F BraDBF=F KetDBF=F FulRan=T
         Omega=  0.000000  0.000000  1.000000  0.000000  0.000000 ICntrl=    2127 IOpCl=  0
         NMat0=    1 NMatS0=    1 NMatT0=    0 NMatD0=    1 NMtDS0=    0 NMtDT0=    0
         I1Cent=           0 NGrid=           0.
 Petite list used in FoFCou.
 Leave Link  703 at Fri May 24 11:29:13 2024, MaxMem=   33554432 cpu:       0.2
 (Enter /programs/64bit/g09/g09-gfortran/bin/l716.exe)
 Dipole        = 0.00000000D+00 0.00000000D+00-8.35179481D-01
 ***** Axes restored to original set *****
 -------------------------------------------------------------------
 Center     Atomic                   Forces (Hartrees/Bohr)
 Number     Number              X              Y              Z
 -------------------------------------------------------------------
      1        1          -0.000000000   -0.000000000    0.068394399
      2        9          -0.000000000   -0.000000000   -0.068394399
 -------------------------------------------------------------------
 Cartesian Forces:  Max     0.068394399 RMS     0.039487525
 Leave Link  716 at Fri May 24 11:29:13 2024, MaxMem=   33554432 cpu:       0.0
 (Enter /programs/64bit/g09/g09-gfortran/bin/l103.exe)

 GradGradGradGradGradGradGradGradGradGradGradGradGradGradGradGradGradGrad
 Berny optimization.
 Internal  Forces:  Max     0.068394399 RMS     0.068394399
 Search for a local minimum.
 Step number   1 out of a maximum of   20
 All quantities printed in internal units (Hartrees-Bohrs-Radians)
 RMS Force = .68394D-01 SwitMx=.10000D-02 MixMth= 1
 Mixed Optimization -- RFO/linear search
 Second derivative matrix not updated -- first step.
 The second derivative matrix:
                          R1
           R1           0.46309
     Eigenvalues ---    0.46309
 RFO step:  Lambda=-9.89003935D-03 EMin= 4.63090271D-01
 Linear search not attempted -- first point.
 Iteration  1 RMS(Cart)=  0.10224980 RMS(Int)=  0.00000000
 Iteration  2 RMS(Cart)=  0.00000000 RMS(Int)=  0.00000000
 ClnCor:  largest displacement from symmetrization is 1.39D-17 for atom     1.
 Variable       Old X    -DE/DX   Delta X   Delta X   Delta X     New X
                                 (Linear)    (Quad)   (Total)
    R1        1.90484  -0.06839   0.00000  -0.14460  -0.14460   1.76024
         Item               Value     Threshold  Converged?
 Maximum Force            0.068394     0.000450     NO 
 RMS     Force            0.068394     0.000300     NO 
 Maximum Displacement     0.072302     0.001800     NO 
 RMS     Displacement     0.102250     0.001200     NO 
 Predicted change in Energy=-5.048420D-03
 GradGradGradGradGradGradGradGradGradGradGradGradGradGradGradGradGradGrad

 Leave Link  103 at Fri May 24 11:29:13 2024, MaxMem=   33554432 cpu:       0.0
 (Enter /programs/64bit/g09/g09-gfortran/bin/l202.exe)
                          Input orientation:                          
 ---------------------------------------------------------------------
 Center     Atomic      Atomic             Coordinates (Angstroms)
 Number     Number       Type             X           Y           Z
 ---------------------------------------------------------------------
      1          1           0        0.000000    0.000000    0.038260
      2          9           0        0.000000    0.000000    0.969740
 ---------------------------------------------------------------------
 Stoichiometry    FH
 Framework group  C*V[C*(HF)]
 Deg. of freedom     1
 Full point group                 C*V     NOp   4
 Largest Abelian subgroup         C2V     NOp   4
 Largest concise Abelian subgroup C1      NOp   1
                         Standard orientation:                         
 ---------------------------------------------------------------------
 Center     Atomic      Atomic             Coordinates (Angstroms)
 Number     Number       Type             X           Y           Z
 ---------------------------------------------------------------------
      1          1           0        0.000000    0.000000   -0.838331
      2          9           0        0.000000    0.000000    0.093148
 ---------------------------------------------------------------------
 Rotational constants (GHZ):      0.0000000    608.6024578    608.6024578
 Leave Link  202 at Fri May 24 11:29:13 2024, MaxMem=   33554432 cpu:       0.0
 (Enter /programs/64bit/g09/g09-gfortran/bin/l301.exe)
 Standard basis: 6-31+G(d,p) (6D, 7F)
 Ernie: Thresh=  0.10000D-02 Tol=  0.10000D-05 Strict=F.
 There are    13 symmetry adapted basis functions of A1  symmetry.
 There are     1 symmetry adapted basis functions of A2  symmetry.
 There are     5 symmetry adapted basis functions of B1  symmetry.
 There are     5 symmetry adapted basis functions of B2  symmetry.
 Integral buffers will be    131072 words long.
 Raffenetti 2 integral format.
 Two-electron integral symmetry is turned on.
    24 basis functions,    39 primitive gaussians,    24 cartesian basis functions
     5 alpha electrons        5 beta electrons
       nuclear repulsion energy         5.1129365785 Hartrees.
 IExCor=  402 DFT=T Ex+Corr=B3LYP ExCW=0 ScaHFX=  0.200000
 ScaDFX=  0.800000  0.720000  1.000000  0.810000 ScalE2=  1.000000  1.000000
 IRadAn=      0 IRanWt=     -1 IRanGd=            0 ICorTp=0
 NAtoms=    2 NActive=    2 NUniq=    2 SFac= 7.50D-01 NAtFMM=   80 NAOKFM=F Big=F
 Leave Link  301 at Fri May 24 11:29:13 2024, MaxMem=   33554432 cpu:       0.1
 (Enter /programs/64bit/g09/g09-gfortran/bin/l302.exe)
 NPDir=0 NMtPBC=     1 NCelOv=     1 NCel=       1 NClECP=     1 NCelD=      1
         NCelK=      1 NCelE2=     1 NClLst=     1 CellRange=     0.0.
 One-electron integrals computed using PRISM.
 NBasis=    24 RedAO= T  NBF=    13     1     5     5
 NBsUse=    24 1.00D-06 NBFU=    13     1     5     5
 Precomputing XC quadrature grid using
 IXCGrd= 2 IRadAn=           0 IRanWt=          -1 IRanGd=           0 AccXCQ= 1.00D-10.
 NRdTot=     125 NPtTot=       15630 NUsed=       16544 NTot=       16576
 NSgBfM=    24    24    24    24    24 NAtAll=     2     2.
 Leave Link  302 at Fri May 24 11:29:13 2024, MaxMem=   33554432 cpu:       0.1
 (Enter /programs/64bit/g09/g09-gfortran/bin/l303.exe)
 DipDrv:  MaxL=1.
 Leave Link  303 at Fri May 24 11:29:13 2024, MaxMem=   33554432 cpu:       0.0
 (Enter /programs/64bit/g09/g09-gfortran/bin/l401.exe)
 Initial guess read from the read-write file.
 B after Tr=     0.000000    0.000000    0.000000
         Rot=    1.000000    0.000000    0.000000    0.000000 Ang=   0.00 deg.
 Guess basis will be translated and rotated to current coordinates.
 Initial guess orbital symmetries:
       Occupied  (SG) (SG) (SG) (PI) (PI)
       Virtual   (SG) (SG) (PI) (PI) (SG) (SG) (PI) (PI) (SG) (PI)
                 (PI) (SG) (DLTA) (DLTA) (SG) (PI) (PI) (SG) (SG)
 The electronic state of the initial guess is 1-SG.
 Generating alternative initial guess.
 Harris functional with IExCor=  402 diagonalized for initial guess.
 ExpMin= 1.08D-01 ExpMax= 7.00D+03 ExpMxC= 1.05D+03 IAcc=1 IRadAn=         1 AccDes= 0.00D+00
 HarFok:  IExCor=  402 AccDes= 0.00D+00 IRadAn=         1 IDoV= 1
 ScaDFX=  1.000000  1.000000  1.000000  1.000000
 FoFCou: FMM=F IPFlag=           0 FMFlag=      100000 FMFlg1=           0
         NFxFlg=           0 DoJE=T BraDBF=F KetDBF=T FulRan=T
         Omega=  0.000000  0.000000  1.000000  0.000000  0.000000 ICntrl=     500 IOpCl=  0
         NMat0=    1 NMatS0=    1 NMatT0=    0 NMatD0=    1 NMtDS0=    0 NMtDT0=    0
         I1Cent=           4 NGrid=           0.
 Petite list used in FoFCou.
 Harris En= -100.462684130658    
 Leave Link  401 at Fri May 24 11:29:13 2024, MaxMem=   33554432 cpu:       0.1
 (Enter /programs/64bit/g09/g09-gfortran/bin/l502.exe)
 Closed shell SCF:
 Requested convergence on RMS density matrix=1.00D-08 within 128 cycles.
 Requested convergence on MAX density matrix=1.00D-06.
 Requested convergence on             energy=1.00D-06.
 No special actions if energy rises.
 Using DIIS extrapolation, IDIIS=  1040.
 Integral symmetry usage will be decided dynamically.
        16513 words used for storage of precomputed grid.
 Keep R1 ints in memory in canonical form, NReq=940089.
 IEnd=       36735 IEndB=       36735 NGot=    33554432 MDV=    33489760
 LenX=    33489760 LenY=    33488743
 Symmetry not used in FoFDir.
 MinBra= 0 MaxBra= 2 Meth= 1.
 IRaf=       0 NMat=   1 IRICut=       1 DoRegI=T DoRafI=F ISym2E= 0 JSym2E=0.
 Integral accuracy reduced to 1.0D-05 until final iterations.

 Cycle   1  Pass 0  IDiag  1:
 E= -100.449657458444    
 DIIS: error= 1.21D-02 at cycle   1 NSaved=   1.
 NSaved= 1 IEnMin= 1 EnMin= -100.449657458444     IErMin= 1 ErrMin= 1.21D-02
 ErrMax= 1.21D-02 EMaxC= 1.00D-01 BMatC= 2.03D-03 BMatP= 2.03D-03
 IDIUse=3 WtCom= 8.79D-01 WtEn= 1.21D-01
 Coeff-Com:  0.100D+01
 Coeff-En:   0.100D+01
 Coeff:      0.100D+01
 Recover alternate guess density for next cycle.
 RMSDP=5.50D-03 MaxDP=5.47D-02              OVMax= 0.00D+00

 Cycle   2  Pass 0  IDiag  1:
 E= -100.425867753778     Delta-E=        0.023789704665 Rises=F Damp=F
 Switch densities from cycles 1 and 2 for lowest energy.
 DIIS: error= 3.80D-02 at cycle   2 NSaved=   2.
 NSaved= 2 IEnMin= 1 EnMin= -100.449657458444     IErMin= 1 ErrMin= 1.21D-02
 ErrMax= 3.80D-02 EMaxC= 1.00D+00 BMatC= 3.82D-02 BMatP= 2.03D-03
 IDIUse=1 WtCom= 1.00D+00 WtEn= 0.00D+00
 Coeff-Com:  0.924D+00 0.761D-01
 Coeff:      0.924D+00 0.761D-01
 Gap=     0.505 Goal=   None    Shift=    0.000
 RMSDP=1.82D-03 MaxDP=1.44D-02 DE= 2.38D-02 OVMax= 1.79D-02

 Cycle   3  Pass 0  IDiag  1:
 E= -100.451306540166     Delta-E=       -0.025438786387 Rises=F Damp=F
 DIIS: error= 1.75D-03 at cycle   3 NSaved=   3.
 NSaved= 3 IEnMin= 3 EnMin= -100.451306540166     IErMin= 3 ErrMin= 1.75D-03
 ErrMax= 1.75D-03 EMaxC= 1.00D+00 BMatC= 6.04D-05 BMatP= 2.03D-03
 IDIUse=1 WtCom= 1.00D+00 WtEn= 0.00D+00
 Coeff-Com:  0.326D-01 0.294D-01 0.938D+00
 Coeff:      0.326D-01 0.294D-01 0.938D+00
 Gap=     0.462 Goal=   None    Shift=    0.000
 RMSDP=2.38D-04 MaxDP=2.04D-03 DE=-2.54D-02 OVMax= 3.47D-03

 Cycle   4  Pass 0  IDiag  1:
 E= -100.451351775008     Delta-E=       -0.000045234842 Rises=F Damp=F
 DIIS: error= 3.34D-04 at cycle   4 NSaved=   4.
 NSaved= 4 IEnMin= 4 EnMin= -100.451351775008     IErMin= 4 ErrMin= 3.34D-04
 ErrMax= 3.34D-04 EMaxC= 1.00D+00 BMatC= 3.48D-06 BMatP= 6.04D-05
 IDIUse=1 WtCom= 1.00D+00 WtEn= 0.00D+00
 Coeff-Com: -0.790D-02 0.917D-02 0.222D+00 0.777D+00
 Coeff:     -0.790D-02 0.917D-02 0.222D+00 0.777D+00
 Gap=     0.462 Goal=   None    Shift=    0.000
 RMSDP=4.20D-05 MaxDP=2.25D-04 DE=-4.52D-05 OVMax= 4.24D-04

 Cycle   5  Pass 0  IDiag  1:
 E= -100.451354149976     Delta-E=       -0.000002374968 Rises=F Damp=F
 DIIS: error= 1.28D-05 at cycle   5 NSaved=   5.
 NSaved= 5 IEnMin= 5 EnMin= -100.451354149976     IErMin= 5 ErrMin= 1.28D-05
 ErrMax= 1.28D-05 EMaxC= 1.00D+00 BMatC= 3.82D-09 BMatP= 3.48D-06
 IDIUse=1 WtCom= 1.00D+00 WtEn= 0.00D+00
 Coeff-Com: -0.205D-03 0.557D-04-0.620D-02-0.645D-02 0.101D+01
 Coeff:     -0.205D-03 0.557D-04-0.620D-02-0.645D-02 0.101D+01
 Gap=     0.462 Goal=   None    Shift=    0.000
 RMSDP=2.29D-06 MaxDP=2.36D-05 DE=-2.37D-06 OVMax= 3.62D-05

 Initial convergence to 1.0D-05 achieved.  Increase integral accuracy.
 Cycle   6  Pass 1  IDiag  1:
 E= -100.451355656523     Delta-E=       -0.000001506547 Rises=F Damp=F
 DIIS: error= 1.16D-06 at cycle   1 NSaved=   1.
 NSaved= 1 IEnMin= 1 EnMin= -100.451355656523     IErMin= 1 ErrMin= 1.16D-06
 ErrMax= 1.16D-06 EMaxC= 1.00D+00 BMatC= 2.66D-11 BMatP= 2.66D-11
 IDIUse=1 WtCom= 1.00D+00 WtEn= 0.00D+00
 Coeff-Com:  0.100D+01
 Coeff:      0.100D+01
 Gap=     0.462 Goal=   None    Shift=    0.000
 RMSDP=2.29D-06 MaxDP=2.36D-05 DE=-1.51D-06 OVMax= 1.56D-06

 Cycle   7  Pass 1  IDiag  1:
 E= -100.451355656539     Delta-E=       -0.000000000017 Rises=F Damp=F
 DIIS: error= 4.24D-08 at cycle   2 NSaved=   2.
 NSaved= 2 IEnMin= 2 EnMin= -100.451355656539     IErMin= 2 ErrMin= 4.24D-08
 ErrMax= 4.24D-08 EMaxC= 1.00D+00 BMatC= 7.94D-14 BMatP= 2.66D-11
 IDIUse=1 WtCom= 1.00D+00 WtEn= 0.00D+00
 Coeff-Com:  0.170D-02 0.998D+00
 Coeff:      0.170D-02 0.998D+00
 Gap=     0.462 Goal=   None    Shift=    0.000
 RMSDP=2.41D-08 MaxDP=1.84D-07 DE=-1.66D-11 OVMax= 1.10D-07

 Cycle   8  Pass 1  IDiag  1:
 E= -100.451355656539     Delta-E=        0.000000000000 Rises=F Damp=F
 DIIS: error= 4.36D-08 at cycle   3 NSaved=   3.
 NSaved= 3 IEnMin= 2 EnMin= -100.451355656539     IErMin= 2 ErrMin= 4.24D-08
 ErrMax= 4.36D-08 EMaxC= 1.00D+00 BMatC= 4.80D-14 BMatP= 7.94D-14
 IDIUse=1 WtCom= 1.00D+00 WtEn= 0.00D+00
 Coeff-Com: -0.339D-02 0.421D+00 0.583D+00
 Coeff:     -0.339D-02 0.421D+00 0.583D+00
 Gap=     0.462 Goal=   None    Shift=    0.000
 RMSDP=6.00D-09 MaxDP=6.17D-08 DE= 1.42D-14 OVMax= 7.50D-08

 SCF Done:  E(RB3LYP) =  -100.451355657     A.U. after    8 cycles
             Convg  =    0.6002D-08             -V/T =  2.0080
 KE= 9.965744229664D+01 PE=-2.498712684151D+02 EE= 4.464953388335D+01
 Leave Link  502 at Fri May 24 11:29:13 2024, MaxMem=   33554432 cpu:       0.2
 (Enter /programs/64bit/g09/g09-gfortran/bin/l701.exe)
 Compute integral first derivatives.
 ... and contract with generalized density number  0.
 Leave Link  701 at Fri May 24 11:29:14 2024, MaxMem=   33554432 cpu:       0.0
 (Enter /programs/64bit/g09/g09-gfortran/bin/l702.exe)
 L702 exits ... SP integral derivatives will be done elsewhere.
 Leave Link  702 at Fri May 24 11:29:14 2024, MaxMem=   33554432 cpu:       0.0
 (Enter /programs/64bit/g09/g09-gfortran/bin/l703.exe)
 Compute integral first derivatives, UseDBF=F ICtDFT=           0.
 Integral derivatives from FoFDir, PRISM(SPDF).
 Calling FoFJK, ICntrl=      2127 FMM=F ISym2X=1 I1Cent= 0 IOpClX= 0 NMat=1 NMatS=1 NMatT=0.
 FoFCou: FMM=F IPFlag=           0 FMFlag=      100000 FMFlg1=         800
         NFxFlg=           0 DoJE=F BraDBF=F KetDBF=F FulRan=T
         Omega=  0.000000  0.000000  1.000000  0.000000  0.000000 ICntrl=    2127 IOpCl=  0
         NMat0=    1 NMatS0=    1 NMatT0=    0 NMatD0=    1 NMtDS0=    0 NMtDT0=    0
         I1Cent=           0 NGrid=           0.
 Petite list used in FoFCou.
 Leave Link  703 at Fri May 24 11:29:14 2024, MaxMem=   33554432 cpu:       0.2
 (Enter /programs/64bit/g09/g09-gfortran/bin/l716.exe)
 Dipole        = 0.00000000D+00 0.00000000D+00-7.87107179D-01
 ***** Axes restored to original set *****
 -------------------------------------------------------------------
 Center     Atomic                   Forces (Hartrees/Bohr)
 Number     Number              X              Y              Z
 -------------------------------------------------------------------
      1        1          -0.000000000   -0.000000000    0.004075439
      2        9          -0.000000000   -0.000000000   -0.004075439
 -------------------------------------------------------------------
 Cartesian Forces:  Max     0.004075439 RMS     0.002352956
 Leave Link  716 at Fri May 24 11:29:14 2024, MaxMem=   33554432 cpu:       0.0
 (Enter /programs/64bit/g09/g09-gfortran/bin/l103.exe)

 GradGradGradGradGradGradGradGradGradGradGradGradGradGradGradGradGradGrad
 Berny optimization.
 Using GEDIIS/GDIIS optimizer.
 Internal  Forces:  Max     0.004075439 RMS     0.004075439
 Search for a local minimum.
 Step number   2 out of a maximum of   20
 All quantities printed in internal units (Hartrees-Bohrs-Radians)
 RMS Force = .40754D-02 SwitMx=.10000D-02 MixMth= 1
 Mixed Optimization -- RFO/linear search
 Update second derivatives using D2CorX and points    1    2
 DE= -5.68D-03 DEPred=-5.05D-03 R= 1.13D+00
 SS=  1.41D+00  RLast= 1.45D-01 DXNew= 5.0454D-01 4.3381D-01
 Trust test= 1.13D+00 RLast= 1.45D-01 DXMaxT set to 4.34D-01
 The second derivative matrix:
                          R1
           R1           0.44480
 Use linear search instead of GDIIS.
     Eigenvalues ---    0.44480
 RFO step:  Lambda= 0.00000000D+00 EMin= 4.44796678D-01
 Quartic linear search produced a step of  0.04812.
 Iteration  1 RMS(Cart)=  0.00492032 RMS(Int)=  0.00000000
 Iteration  2 RMS(Cart)=  0.00000000 RMS(Int)=  0.00000000
 ClnCor:  largest displacement from symmetrization is 5.55D-17 for atom     1.
 Variable       Old X    -DE/DX   Delta X   Delta X   Delta X     New X
                                 (Linear)    (Quad)   (Total)
    R1        1.76024  -0.00408  -0.00696   0.00000  -0.00696   1.75328
         Item               Value     Threshold  Converged?
 Maximum Force            0.004075     0.000450     NO 
 RMS     Force            0.004075     0.000300     NO 
 Maximum Displacement     0.003479     0.001800     NO 
 RMS     Displacement     0.004920     0.001200     NO 
 Predicted change in Energy=-1.759014D-05
 GradGradGradGradGradGradGradGradGradGradGradGradGradGradGradGradGradGrad

 Leave Link  103 at Fri May 24 11:29:14 2024, MaxMem=   33554432 cpu:       0.0
 (Enter /programs/64bit/g09/g09-gfortran/bin/l202.exe)
                          Input orientation:                          
 ---------------------------------------------------------------------
 Center     Atomic      Atomic             Coordinates (Angstroms)
 Number     Number       Type             X           Y           Z
 ---------------------------------------------------------------------
      1          1           0        0.000000    0.000000    0.040101
      2          9           0        0.000000    0.000000    0.967899
 ---------------------------------------------------------------------
 Stoichiometry    FH
 Framework group  C*V[C*(HF)]
 Deg. of freedom     1
 Full point group                 C*V     NOp   4
 Largest Abelian subgroup         C2V     NOp   4
 Largest concise Abelian subgroup C1      NOp   1
                         Standard orientation:                         
 ---------------------------------------------------------------------
 Center     Atomic      Atomic             Coordinates (Angstroms)
 Number     Number       Type             X           Y           Z
 ---------------------------------------------------------------------
      1          1           0        0.000000    0.000000   -0.835017
      2          9           0        0.000000    0.000000    0.092780
 ---------------------------------------------------------------------
 Rotational constants (GHZ):      0.0000000    613.4428549    613.4428549
 Leave Link  202 at Fri May 24 11:29:14 2024, MaxMem=   33554432 cpu:       0.0
 (Enter /programs/64bit/g09/g09-gfortran/bin/l301.exe)
 Standard basis: 6-31+G(d,p) (6D, 7F)
 Ernie: Thresh=  0.10000D-02 Tol=  0.10000D-05 Strict=F.
 There are    13 symmetry adapted basis functions of A1  symmetry.
 There are     1 symmetry adapted basis functions of A2  symmetry.
 There are     5 symmetry adapted basis functions of B1  symmetry.
 There are     5 symmetry adapted basis functions of B2  symmetry.
 Integral buffers will be    131072 words long.
 Raffenetti 2 integral format.
 Two-electron integral symmetry is turned on.
    24 basis functions,    39 primitive gaussians,    24 cartesian basis functions
     5 alpha electrons        5 beta electrons
       nuclear repulsion energy         5.1332286669 Hartrees.
 IExCor=  402 DFT=T Ex+Corr=B3LYP ExCW=0 ScaHFX=  0.200000
 ScaDFX=  0.800000  0.720000  1.000000  0.810000 ScalE2=  1.000000  1.000000
 IRadAn=      0 IRanWt=     -1 IRanGd=            0 ICorTp=0
 NAtoms=    2 NActive=    2 NUniq=    2 SFac= 7.50D-01 NAtFMM=   80 NAOKFM=F Big=F
 Leave Link  301 at Fri May 24 11:29:14 2024, MaxMem=   33554432 cpu:       0.0
 (Enter /programs/64bit/g09/g09-gfortran/bin/l302.exe)
 NPDir=0 NMtPBC=     1 NCelOv=     1 NCel=       1 NClECP=     1 NCelD=      1
         NCelK=      1 NCelE2=     1 NClLst=     1 CellRange=     0.0.
 One-electron integrals computed using PRISM.
 NBasis=    24 RedAO= T  NBF=    13     1     5     5
 NBsUse=    24 1.00D-06 NBFU=    13     1     5     5
 Precomputing XC quadrature grid using
 IXCGrd= 2 IRadAn=           0 IRanWt=          -1 IRanGd=           0 AccXCQ= 1.00D-10.
 NRdTot=     125 NPtTot=       15630 NUsed=       16544 NTot=       16576
 NSgBfM=    24    24    24    24    24 NAtAll=     2     2.
 Leave Link  302 at Fri May 24 11:29:14 2024, MaxMem=   33554432 cpu:       0.1
 (Enter /programs/64bit/g09/g09-gfortran/bin/l303.exe)
 DipDrv:  MaxL=1.
 Leave Link  303 at Fri May 24 11:29:14 2024, MaxMem=   33554432 cpu:       0.0
 (Enter /programs/64bit/g09/g09-gfortran/bin/l401.exe)
 Initial guess read from the read-write file.
 B after Tr=     0.000000    0.000000    0.000000
         Rot=    1.000000    0.000000    0.000000    0.000000 Ang=   0.00 deg.
 Guess basis will be translated and rotated to current coordinates.
 Initial guess orbital symmetries:
       Occupied  (SG) (SG) (SG) (PI) (PI)
       Virtual   (SG) (SG) (PI) (PI) (SG) (SG) (PI) (PI) (SG) (PI)
                 (PI) (SG) (DLTA) (DLTA) (SG) (PI) (PI) (SG) (SG)
 The electronic state of the initial guess is 1-SG.
 Leave Link  401 at Fri May 24 11:29:14 2024, MaxMem=   33554432 cpu:       0.0
 (Enter /programs/64bit/g09/g09-gfortran/bin/l502.exe)
 Closed shell SCF:
 Requested convergence on RMS density matrix=1.00D-08 within 128 cycles.
 Requested convergence on MAX density matrix=1.00D-06.
 Requested convergence on             energy=1.00D-06.
 No special actions if energy rises.
 Using DIIS extrapolation, IDIIS=  1040.
 Integral symmetry usage will be decided dynamically.
        16513 words used for storage of precomputed grid.
 Keep R1 ints in memory in canonical form, NReq=940089.
 IEnd=       36735 IEndB=       36735 NGot=    33554432 MDV=    33489760
 LenX=    33489760 LenY=    33488743
 Symmetry not used in FoFDir.
 MinBra= 0 MaxBra= 2 Meth= 1.
 IRaf=       0 NMat=   1 IRICut=       1 DoRegI=T DoRafI=F ISym2E= 0 JSym2E=0.

 Cycle   1  Pass 1  IDiag  1:
 E= -100.451365229294    
 DIIS: error= 6.36D-04 at cycle   1 NSaved=   1.
 NSaved= 1 IEnMin= 1 EnMin= -100.451365229294     IErMin= 1 ErrMin= 6.36D-04
 ErrMax= 6.36D-04 EMaxC= 1.00D-01 BMatC= 5.55D-06 BMatP= 5.55D-06
 IDIUse=3 WtCom= 9.94D-01 WtEn= 6.36D-03
 Coeff-Com:  0.100D+01
 Coeff-En:   0.100D+01
 Coeff:      0.100D+01
 Gap=     0.464 Goal=   None    Shift=    0.000
 RMSDP=1.01D-04 MaxDP=7.50D-04              OVMax= 1.01D-03

 Cycle   2  Pass 1  IDiag  1:
 E= -100.451369227420     Delta-E=       -0.000003998126 Rises=F Damp=F
 DIIS: error= 1.95D-04 at cycle   2 NSaved=   2.
 NSaved= 2 IEnMin= 2 EnMin= -100.451369227420     IErMin= 2 ErrMin= 1.95D-04
 ErrMax= 1.95D-04 EMaxC= 1.00D-01 BMatC= 8.64D-07 BMatP= 5.55D-06
 IDIUse=3 WtCom= 9.98D-01 WtEn= 1.95D-03
 Coeff-Com:  0.183D+00 0.817D+00
 Coeff-En:   0.000D+00 0.100D+01
 Coeff:      0.183D+00 0.817D+00
 Gap=     0.463 Goal=   None    Shift=    0.000
 RMSDP=3.43D-05 MaxDP=3.39D-04 DE=-4.00D-06 OVMax= 3.75D-04

 Cycle   3  Pass 1  IDiag  1:
 E= -100.451369253953     Delta-E=       -0.000000026533 Rises=F Damp=F
 DIIS: error= 1.88D-04 at cycle   3 NSaved=   3.
 NSaved= 3 IEnMin= 3 EnMin= -100.451369253953     IErMin= 3 ErrMin= 1.88D-04
 ErrMax= 1.88D-04 EMaxC= 1.00D-01 BMatC= 8.38D-07 BMatP= 8.64D-07
 IDIUse=3 WtCom= 9.98D-01 WtEn= 1.88D-03
 Coeff-Com:  0.516D-02 0.495D+00 0.500D+00
 Coeff-En:   0.000D+00 0.489D+00 0.511D+00
 Coeff:      0.515D-02 0.495D+00 0.500D+00
 Gap=     0.463 Goal=   None    Shift=    0.000
 RMSDP=1.86D-05 MaxDP=1.82D-04 DE=-2.65D-08 OVMax= 2.18D-04

 Cycle   4  Pass 1  IDiag  1:
 E= -100.451369756731     Delta-E=       -0.000000502778 Rises=F Damp=F
 DIIS: error= 1.37D-05 at cycle   4 NSaved=   4.
 NSaved= 4 IEnMin= 4 EnMin= -100.451369756731     IErMin= 4 ErrMin= 1.37D-05
 ErrMax= 1.37D-05 EMaxC= 1.00D-01 BMatC= 3.40D-09 BMatP= 8.38D-07
 IDIUse=1 WtCom= 1.00D+00 WtEn= 0.00D+00
 Coeff-Com: -0.527D-02 0.107D+00 0.138D+00 0.760D+00
 Coeff:     -0.527D-02 0.107D+00 0.138D+00 0.760D+00
 Gap=     0.463 Goal=   None    Shift=    0.000
 RMSDP=1.72D-06 MaxDP=9.21D-06 DE=-5.03D-07 OVMax= 1.86D-05

 Cycle   5  Pass 1  IDiag  1:
 E= -100.451369759164     Delta-E=       -0.000000002434 Rises=F Damp=F
 DIIS: error= 5.20D-07 at cycle   5 NSaved=   5.
 NSaved= 5 IEnMin= 5 EnMin= -100.451369759164     IErMin= 5 ErrMin= 5.20D-07
 ErrMax= 5.20D-07 EMaxC= 1.00D-01 BMatC= 6.27D-12 BMatP= 3.40D-09
 IDIUse=1 WtCom= 1.00D+00 WtEn= 0.00D+00
 Coeff-Com: -0.194D-03-0.420D-02-0.505D-02 0.144D-01 0.995D+00
 Coeff:     -0.194D-03-0.420D-02-0.505D-02 0.144D-01 0.995D+00
 Gap=     0.463 Goal=   None    Shift=    0.000
 RMSDP=8.45D-08 MaxDP=9.60D-07 DE=-2.43D-09 OVMax= 1.40D-06

 Cycle   6  Pass 1  IDiag  1:
 E= -100.451369759170     Delta-E=       -0.000000000006 Rises=F Damp=F
 DIIS: error= 1.99D-08 at cycle   6 NSaved=   6.
 NSaved= 6 IEnMin= 6 EnMin= -100.451369759170     IErMin= 6 ErrMin= 1.99D-08
 ErrMax= 1.99D-08 EMaxC= 1.00D-01 BMatC= 1.05D-14 BMatP= 6.27D-12
 IDIUse=1 WtCom= 1.00D+00 WtEn= 0.00D+00
 Coeff-Com:  0.199D-04-0.522D-03-0.661D-03-0.237D-02 0.287D-01 0.975D+00
 Coeff:      0.199D-04-0.522D-03-0.661D-03-0.237D-02 0.287D-01 0.975D+00
 Gap=     0.463 Goal=   None    Shift=    0.000
 RMSDP=5.71D-09 MaxDP=4.32D-08 DE=-5.87D-12 OVMax= 7.90D-08

 SCF Done:  E(RB3LYP) =  -100.451369759     A.U. after    6 cycles
             Convg  =    0.5713D-08             -V/T =  2.0079
 KE= 9.966449527967D+01 PE=-2.499127104755D+02 EE= 4.466361676970D+01
 Leave Link  502 at Fri May 24 11:29:14 2024, MaxMem=   33554432 cpu:       0.2
 (Enter /programs/64bit/g09/g09-gfortran/bin/l701.exe)
 Compute integral first derivatives.
 ... and contract with generalized density number  0.
 Leave Link  701 at Fri May 24 11:29:14 2024, MaxMem=   33554432 cpu:       0.0
 (Enter /programs/64bit/g09/g09-gfortran/bin/l702.exe)
 L702 exits ... SP integral derivatives will be done elsewhere.
 Leave Link  702 at Fri May 24 11:29:14 2024, MaxMem=   33554432 cpu:       0.0
 (Enter /programs/64bit/g09/g09-gfortran/bin/l703.exe)
 Compute integral first derivatives, UseDBF=F ICtDFT=           0.
 Integral derivatives from FoFDir, PRISM(SPDF).
 Calling FoFJK, ICntrl=      2127 FMM=F ISym2X=1 I1Cent= 0 IOpClX= 0 NMat=1 NMatS=1 NMatT=0.
 FoFCou: FMM=F IPFlag=           0 FMFlag=      100000 FMFlg1=         800
         NFxFlg=           0 DoJE=F BraDBF=F KetDBF=F FulRan=T
         Omega=  0.000000  0.000000  1.000000  0.000000  0.000000 ICntrl=    2127 IOpCl=  0
         NMat0=    1 NMatS0=    1 NMatT0=    0 NMatD0=    1 NMtDS0=    0 NMtDT0=    0
         I1Cent=           0 NGrid=           0.
 Petite list used in FoFCou.
 Leave Link  703 at Fri May 24 11:29:15 2024, MaxMem=   33554432 cpu:       0.2
 (Enter /programs/64bit/g09/g09-gfortran/bin/l716.exe)
 Dipole        = 0.00000000D+00 0.00000000D+00-7.84772190D-01
 ***** Axes restored to original set *****
 -------------------------------------------------------------------
 Center     Atomic                   Forces (Hartrees/Bohr)
 Number     Number              X              Y              Z
 -------------------------------------------------------------------
      1        1          -0.000000000   -0.000000000   -0.000040544
      2        9          -0.000000000   -0.000000000    0.000040544
 -------------------------------------------------------------------
 Cartesian Forces:  Max     0.000040544 RMS     0.000023408
 Leave Link  716 at Fri May 24 11:29:15 2024, MaxMem=   33554432 cpu:       0.0
 (Enter /programs/64bit/g09/g09-gfortran/bin/l103.exe)

 GradGradGradGradGradGradGradGradGradGradGradGradGradGradGradGradGradGrad
 Berny optimization.
 Using GEDIIS/GDIIS optimizer.
 Internal  Forces:  Max     0.000040544 RMS     0.000040544
 Search for a local minimum.
 Step number   3 out of a maximum of   20
 All quantities printed in internal units (Hartrees-Bohrs-Radians)
 RMS Force = .40544D-04 SwitMx=.10000D-02 MixMth= 2
 Mixed Optimization -- En-DIIS/RFO-DIIS
 Update second derivatives using D2CorX and points    2    3
 DE= -1.41D-05 DEPred=-1.76D-05 R= 8.02D-01
 SS=  1.41D+00  RLast= 6.96D-03 DXNew= 7.2958D-01 2.0875D-02
 Trust test= 8.02D-01 RLast= 6.96D-03 DXMaxT set to 4.34D-01
 The second derivative matrix:
                          R1
           R1           0.59151
 Use linear search instead of GDIIS.
     Eigenvalues ---    0.59151
 RFO step:  Lambda= 0.00000000D+00 EMin= 5.91514493D-01
 Quartic linear search produced a step of -0.00972.
 Iteration  1 RMS(Cart)=  0.00004783 RMS(Int)=  0.00000000
 Iteration  2 RMS(Cart)=  0.00000000 RMS(Int)=  0.00000000
 ClnCor:  largest displacement from symmetrization is 5.55D-17 for atom     1.
 Variable       Old X    -DE/DX   Delta X   Delta X   Delta X     New X
                                 (Linear)    (Quad)   (Total)
    R1        1.75328   0.00004   0.00007   0.00000   0.00007   1.75335
         Item               Value     Threshold  Converged?
 Maximum Force            0.000041     0.000450     YES
 RMS     Force            0.000041     0.000300     YES
 Maximum Displacement     0.000034     0.001800     YES
 RMS     Displacement     0.000048     0.001200     YES
 Predicted change in Energy=-1.389264D-09
 Optimization completed.
    -- Stationary point found.
                           ----------------------------
                           !   Optimized Parameters   !
                           ! (Angstroms and Degrees)  !
 --------------------------                            --------------------------
 ! Name  Definition              Value          Derivative Info.                !
 --------------------------------------------------------------------------------
 ! R1    R(1,2)                  0.9278         -DE/DX =    0.0                 !
 --------------------------------------------------------------------------------
 GradGradGradGradGradGradGradGradGradGradGradGradGradGradGradGradGradGrad

 Largest change from initial coordinates is atom    1       0.008 Angstoms.
 Leave Link  103 at Fri May 24 11:29:15 2024, MaxMem=   33554432 cpu:       0.0
 (Enter /programs/64bit/g09/g09-gfortran/bin/l202.exe)
                          Input orientation:                          
 ---------------------------------------------------------------------
 Center     Atomic      Atomic             Coordinates (Angstroms)
 Number     Number       Type             X           Y           Z
 ---------------------------------------------------------------------
      1          1           0        0.000000    0.000000    0.040101
      2          9           0        0.000000    0.000000    0.967899
 ---------------------------------------------------------------------
 Stoichiometry    FH
 Framework group  C*V[C*(HF)]
 Deg. of freedom     1
 Full point group                 C*V     NOp   4
 Largest Abelian subgroup         C2V     NOp   4
 Largest concise Abelian subgroup C1      NOp   1
                         Standard orientation:                         
 ---------------------------------------------------------------------
 Center     Atomic      Atomic             Coordinates (Angstroms)
 Number     Number       Type             X           Y           Z
 ---------------------------------------------------------------------
      1          1           0        0.000000    0.000000   -0.835017
      2          9           0        0.000000    0.000000    0.092780
 ---------------------------------------------------------------------
 Rotational constants (GHZ):      0.0000000    613.4428549    613.4428549
 Leave Link  202 at Fri May 24 11:29:15 2024, MaxMem=   33554432 cpu:       0.0
 (Enter /programs/64bit/g09/g09-gfortran/bin/l601.exe)
 Copying SCF densities to generalized density rwf, IOpCl= 0 IROHF=0.

 **********************************************************************

            Population analysis using the SCF density.

 **********************************************************************

 Orbital symmetries:
       Occupied  (SG) (SG) (SG) (PI) (PI)
       Virtual   (SG) (SG) (PI) (PI) (SG) (SG) (PI) (PI) (SG) (PI)
                 (PI) (SG) (DLTA) (DLTA) (SG) (PI) (PI) (SG) (SG)
 The electronic state is 1-SG.
 Alpha  occ. eigenvalues --  -24.71680  -1.21106  -0.55786  -0.42232  -0.42232
 Alpha virt. eigenvalues --    0.04094   0.18994   0.20092   0.20092   0.25033
 Alpha virt. eigenvalues --    0.90552   1.43226   1.43226   1.47679   1.60564
 Alpha virt. eigenvalues --    1.60564   1.60827   1.83590   1.83590   2.52808
 Alpha virt. eigenvalues --    2.68917   2.68917   3.61195   4.35599
          Condensed to atoms (all electrons):
              1          2
     1  H    0.371192   0.228369
     2  F    0.228369   9.172069
 Mulliken atomic charges:
              1
     1  H    0.400439
     2  F   -0.400439
 Sum of Mulliken atomic charges =  -0.00000
 Mulliken charges with hydrogens summed into heavy atoms:
              1
     2  F   -0.000000
 Sum of Mulliken charges with hydrogens summed into heavy atoms =  -0.00000
 Electronic spatial extent (au):  <R**2>=             14.3524
 Charge=             -0.0000 electrons
 Dipole moment (field-independent basis, Debye):
    X=              0.0000    Y=              0.0000    Z=             -1.9947  Tot=              1.9947
 Quadrupole moment (field-independent basis, Debye-Ang):
   XX=             -5.9260   YY=             -5.9260   ZZ=             -3.7314
   XY=              0.0000   XZ=              0.0000   YZ=              0.0000
 Traceless Quadrupole moment (field-independent basis, Debye-Ang):
   XX=             -0.7315   YY=             -0.7315   ZZ=              1.4631
   XY=              0.0000   XZ=              0.0000   YZ=              0.0000
 Octapole moment (field-independent basis, Debye-Ang**2):
  XXX=              0.0000  YYY=              0.0000  ZZZ=             -1.9923  XYY=              0.0000
  XXY=              0.0000  XXZ=             -0.2337  XZZ=              0.0000  YZZ=              0.0000
  YYZ=             -0.2337  XYZ=              0.0000
 Hexadecapole moment (field-independent basis, Debye-Ang**3):
 XXXX=             -4.4067 YYYY=             -4.4067 ZZZZ=             -3.7618 XXXY=              0.0000
 XXXZ=              0.0000 YYYX=              0.0000 YYYZ=              0.0000 ZZZX=              0.0000
 ZZZY=              0.0000 XXYY=             -1.4689 XXZZ=             -1.6070 YYZZ=             -1.6070
 XXYZ=              0.0000 YYXZ=              0.0000 ZZXY=              0.0000
 N-N= 5.133228666935D+00 E-N=-2.499127105381D+02  KE= 9.966449527967D+01
 Symmetry A1   KE= 8.712205003419D+01
 Symmetry A2   KE= 0.000000000000D+00
 Symmetry B1   KE= 6.271222622739D+00
 Symmetry B2   KE= 6.271222622739D+00
 No NMR shielding tensors so no spin-rotation constants.
 Leave Link  601 at Fri May 24 11:29:15 2024, MaxMem=   33554432 cpu:       0.1
 (Enter /programs/64bit/g09/g09-gfortran/bin/l9999.exe)
 B after Tr=     0.000000    0.000000    1.714360
         Rot=    1.000000    0.000000    0.000000    0.000000 Ang=   0.00 deg.
 Final structure in terms of initial Z-matrix:
 H
 F,1,fh2
      Variables:
 fh2=0.92779714
 1\1\GINC-MOLMOD\FOpt\RB3LYP\6-31+G(d,p)\F1H1\OSPITE\24-May-2024\0\\#p 
 B3LYP/6-31+g** opt out=wfn\\hydrogen fluoride\\0,1\H,0.,0.,0.040101429
 9\F,0.,0.,0.9678985701\\Version=EM64L-G09RevA.02\State=1-SG\HF=-100.45
 13698\RMSD=5.713e-09\RMSF=2.341e-05\Dipole=0.,0.,-0.7847722\Quadrupole
 =-0.543881,-0.543881,1.087762,0.,0.,0.\PG=C*V [C*(H1F1)]\\@

 Writing a WFN file to hf.wfn.


 THERE IS MORE TO LIFE THAN INCREASING ITS SPEED.

                                       -- GANDHI
 Job cpu time:  0 days  0 hours  0 minutes  3.4 seconds.
 File lengths (MBytes):  RWF=      5 Int=      0 D2E=      0 Chk=      1 Scr=      1
 Normal termination of Gaussian 09 at Fri May 24 11:29:15 2024.
