 hydrogen fluoride                                       
GAUSSIAN              5 MOL ORBITALS     39 PRIMITIVES        2 NUCLEI
  H    1    (CENTRE  1)   0.00000000  0.00000000 -1.57795425  CHARGE =  1.0
  F    2    (CENTRE  2)   0.00000000  0.00000000  0.17532825  CHARGE =  9.0
CENTRE ASSIGNMENTS    1  1  1  1  1  1  1  2  2  2  2  2  2  2  2  2  2  2  2  2
CENTRE ASSIGNMENTS    2  2  2  2  2  2  2  2  2  2  2  2  2  2  2  2  2  2  2
TYPE ASSIGNMENTS      1  1  1  1  2  3  4  1  1  1  1  1  1  1  1  1  2  2  2  3
TYPE ASSIGNMENTS      3  3  4  4  4  1  2  3  4  1  2  3  4  5  6  7  8  9 10
EXPONENTS  0.1873114D+02 0.2825394D+01 0.6401217D+00 0.1612778D+00 0.1100000D+01
EXPONENTS  0.1100000D+01 0.1100000D+01 0.7001713D+04 0.1051366D+04 0.2392857D+03
EXPONENTS  0.6739745D+02 0.2151996D+02 0.7403101D+01 0.2084795D+02 0.4808308D+01
EXPONENTS  0.1344070D+01 0.2084795D+02 0.4808308D+01 0.1344070D+01 0.2084795D+02
EXPONENTS  0.4808308D+01 0.1344070D+01 0.2084795D+02 0.4808308D+01 0.1344070D+01
EXPONENTS  0.3581514D+00 0.3581514D+00 0.3581514D+00 0.3581514D+00 0.1076000D+00
EXPONENTS  0.1076000D+00 0.1076000D+00 0.1076000D+00 0.8000000D+00 0.8000000D+00
EXPONENTS  0.8000000D+00 0.8000000D+00 0.8000000D+00 0.8000000D+00
MO    1     MO 0.0        OCC NO =    2.0000000  ORB. ENERGY =  -24.716804
  0.12769991D-03  0.21660322D-03  0.24659511D-03 -0.11711805D-03  0.00000000D+00
  0.00000000D+00 -0.18266121D-04  0.98546221D+00  0.18179802D+01  0.29446537D+01
  0.38809798D+01  0.33316185D+01  0.11324551D+01 -0.13888064D-01 -0.62384256D-02
  0.18483193D-01  0.00000000D+00  0.00000000D+00  0.00000000D+00  0.00000000D+00
  0.00000000D+00  0.00000000D+00 -0.41234913D-02 -0.31827662D-02 -0.13511255D-02
  0.63382231D-02  0.00000000D+00  0.00000000D+00  0.27837879D-03 -0.20639250D-03
  0.00000000D+00  0.00000000D+00 -0.41669889D-04 -0.99882683D-02 -0.99882683D-02
 -0.10256906D-01  0.00000000D+00  0.00000000D+00  0.00000000D+00
MO    2     MO 0.0        OCC NO =    2.0000000  ORB. ENERGY =   -1.211058
  0.31917699D-01  0.54138458D-01  0.61634721D-01 -0.61963306D-03  0.00000000D+00
  0.00000000D+00  0.46969826D-01 -0.22303401D+00 -0.41145304D+00 -0.66644659D+00
 -0.87835990D+00 -0.75402611D+00 -0.25630206D+00 -0.39354624D+00 -0.17677835D+00
  0.52375847D+00  0.00000000D+00  0.00000000D+00  0.00000000D+00  0.00000000D+00
  0.00000000D+00  0.00000000D+00 -0.44234534D+00 -0.34142956D+00 -0.14494127D+00
  0.13799411D+00  0.00000000D+00  0.00000000D+00 -0.12235663D-01  0.42101846D-02
  0.00000000D+00  0.00000000D+00 -0.78010135D-03  0.18978926D-01  0.18978926D-01
  0.26608040D-01  0.00000000D+00  0.00000000D+00  0.00000000D+00
MO    3     MO 0.0        OCC NO =    2.0000000  ORB. ENERGY =   -0.557855
 -0.59818857D-01 -0.10146410D+00 -0.11551330D+00 -0.29017648D-01  0.00000000D+00
  0.00000000D+00 -0.41238042D-01 -0.65188626D-01 -0.12025995D+00 -0.19478974D+00
 -0.25672800D+00 -0.22038758D+00 -0.74912247D-01 -0.11201355D+00 -0.50315743D-01
  0.14907536D+00  0.00000000D+00  0.00000000D+00  0.00000000D+00  0.00000000D+00
  0.00000000D+00  0.00000000D+00  0.25606089D+01  0.19764367D+01  0.83902298D+00
  0.77184151D-01  0.00000000D+00  0.00000000D+00  0.11567636D+00  0.10237523D-01
  0.00000000D+00  0.00000000D+00  0.30444461D-02  0.93177194D-02  0.93177194D-02
 -0.17156714D-01  0.00000000D+00  0.00000000D+00  0.00000000D+00
MO    4     MO 0.0        OCC NO =    2.0000000  ORB. ENERGY =   -0.422322
  0.00000000D+00  0.00000000D+00  0.00000000D+00  0.00000000D+00  0.00000000D+00
  0.36142394D-01  0.00000000D+00  0.00000000D+00  0.00000000D+00  0.00000000D+00
  0.00000000D+00  0.00000000D+00  0.00000000D+00 -0.00000000D+00 -0.00000000D+00
  0.00000000D+00  0.00000000D+00  0.00000000D+00  0.00000000D+00  0.30261205D+01
  0.23357474D+01  0.99155504D+00  0.00000000D+00  0.00000000D+00  0.00000000D+00
  0.00000000D+00  0.00000000D+00  0.16423482D+00  0.00000000D+00  0.00000000D+00
  0.00000000D+00  0.97635458D-02  0.00000000D+00  0.00000000D+00  0.00000000D+00
  0.00000000D+00  0.00000000D+00  0.00000000D+00 -0.43549772D-01
MO    5     MO 0.0        OCC NO =    2.0000000  ORB. ENERGY =   -0.422322
  0.00000000D+00  0.00000000D+00  0.00000000D+00  0.00000000D+00  0.36142394D-01
  0.00000000D+00  0.00000000D+00  0.00000000D+00  0.00000000D+00  0.00000000D+00
  0.00000000D+00  0.00000000D+00  0.00000000D+00 -0.00000000D+00 -0.00000000D+00
  0.00000000D+00  0.30261205D+01  0.23357474D+01  0.99155504D+00  0.00000000D+00
  0.00000000D+00  0.00000000D+00  0.00000000D+00  0.00000000D+00  0.00000000D+00
  0.00000000D+00  0.16423482D+00  0.00000000D+00  0.00000000D+00  0.00000000D+00
  0.97635458D-02  0.00000000D+00  0.00000000D+00  0.00000000D+00  0.00000000D+00
  0.00000000D+00  0.00000000D+00 -0.43549772D-01  0.00000000D+00
END DATA
 THE  HF ENERGY =   -100.451369759170 THE VIRIAL(-V/T)=   2.00789523
