 Entering Gaussian System, Link 0=/g100_work/pMI24_ChiCa/g09d1/g09d01/d01/build-node-6-2-59348/src/main/g09
 Input=geom.com
 Output=geom.log
 Initial command:
 /g100_work/pMI24_ChiCa/g09d1/g09d01/d01/build-node-6-2-59348/src/main/l1.exe "/g100_scratch/userexternal/ggentil1/g16_13362449/Gau-47768.inp" -scrdir="/g100_scratch/userexternal/ggentil1/g16_13362449/"
 Entering Link 1 = /g100_work/pMI24_ChiCa/g09d1/g09d01/d01/build-node-6-2-59348/src/main/l1.exe PID=     47769.
  
 Copyright (c) 1988,1990,1992,1993,1995,1998,2003,2009,2013,
            Gaussian, Inc.  All Rights Reserved.
  
 This is part of the Gaussian(R) 09 program.  It is based on
 the Gaussian(R) 03 system (copyright 2003, Gaussian, Inc.),
 the Gaussian(R) 98 system (copyright 1998, Gaussian, Inc.),
 the Gaussian(R) 94 system (copyright 1995, Gaussian, Inc.),
 the Gaussian 92(TM) system (copyright 1992, Gaussian, Inc.),
 the Gaussian 90(TM) system (copyright 1990, Gaussian, Inc.),
 the Gaussian 88(TM) system (copyright 1988, Gaussian, Inc.),
 the Gaussian 86(TM) system (copyright 1986, Carnegie Mellon
 University), and the Gaussian 82(TM) system (copyright 1983,
 Carnegie Mellon University). Gaussian is a federally registered
 trademark of Gaussian, Inc.
  
 This software contains proprietary and confidential information,
 including trade secrets, belonging to Gaussian, Inc.
  
 This software is provided under written license and may be
 used, copied, transmitted, or stored only in accord with that
 written license.
  
 The following legend is applicable only to US Government
 contracts under FAR:
  
                    RESTRICTED RIGHTS LEGEND
  
 Use, reproduction and disclosure by the US Government is
 subject to restrictions as set forth in subparagraphs (a)
 and (c) of the Commercial Computer Software - Restricted
 Rights clause in FAR 52.227-19.
  
 Gaussian, Inc.
 340 Quinnipiac St., Bldg. 40, Wallingford CT 06492
  
  
 ---------------------------------------------------------------
 Warning -- This program may not be used in any manner that
 competes with the business of Gaussian, Inc. or will provide
 assistance to any competitor of Gaussian, Inc.  The licensee
 of this program is prohibited from giving any competitor of
 Gaussian, Inc. access to this program.  By using this program,
 the user acknowledges that Gaussian, Inc. is engaged in the
 business of creating and licensing software in the field of
 computational chemistry and represents and warrants to the
 licensee that it is not a competitor of Gaussian, Inc. and that
 it will not use this program in any manner prohibited above.
 ---------------------------------------------------------------
  

 Cite this work as:
 Gaussian 09, Revision D.01,
 M. J. Frisch, G. W. Trucks, H. B. Schlegel, G. E. Scuseria, 
 M. A. Robb, J. R. Cheeseman, G. Scalmani, V. Barone, B. Mennucci, 
 G. A. Petersson, H. Nakatsuji, M. Caricato, X. Li, H. P. Hratchian, 
 A. F. Izmaylov, J. Bloino, G. Zheng, J. L. Sonnenberg, M. Hada, 
 M. Ehara, K. Toyota, R. Fukuda, J. Hasegawa, M. Ishida, T. Nakajima, 
 Y. Honda, O. Kitao, H. Nakai, T. Vreven, J. A. Montgomery, Jr., 
 J. E. Peralta, F. Ogliaro, M. Bearpark, J. J. Heyd, E. Brothers, 
 K. N. Kudin, V. N. Staroverov, T. Keith, R. Kobayashi, J. Normand, 
 K. Raghavachari, A. Rendell, J. C. Burant, S. S. Iyengar, J. Tomasi, 
 M. Cossi, N. Rega, J. M. Millam, M. Klene, J. E. Knox, J. B. Cross, 
 V. Bakken, C. Adamo, J. Jaramillo, R. Gomperts, R. E. Stratmann, 
 O. Yazyev, A. J. Austin, R. Cammi, C. Pomelli, J. W. Ochterski, 
 R. L. Martin, K. Morokuma, V. G. Zakrzewski, G. A. Voth, 
 P. Salvador, J. J. Dannenberg, S. Dapprich, A. D. Daniels, 
 O. Farkas, J. B. Foresman, J. V. Ortiz, J. Cioslowski, 
 and D. J. Fox, Gaussian, Inc., Wallingford CT, 2013.
 
 ******************************************
 Gaussian 09:  EM64L-G09RevD.01 24-Apr-2013
                13-May-2024 
 ******************************************
 %chk=tmp
 %mem=32Gb
 %nproc=32
 Will use up to   32 processors via shared memory.
 ------------------------------------------------------
 #p B3LYP/6-31+g(d,p) opt(internal) nosym freq NMR=GIAO
 ------------------------------------------------------
 1/10=7,14=-1,18=40,26=3,38=1/1,3;
 2/12=2,15=1,17=6,18=5,29=3,40=1/2;
 3/5=1,6=6,7=111,11=2,16=1,25=1,30=1,71=1,74=-5/1,2,3;
 4//1;
 5/5=2,38=5/2;
 6/7=2,8=2,9=2,10=2,28=1/1;
 7/29=1,30=1/1,2,3,16;
 1/10=7,14=-1,18=40,26=3/3(2);
 2/15=1,29=3/2;
 99//99;
 2/15=1,29=3/2;
 3/5=1,6=6,7=111,11=2,16=1,25=1,30=1,71=1,74=-5/1,2,3;
 4/5=5,16=3,69=1/1;
 5/5=2,38=5/2;
 7/30=1/1,2,3,16;
 1/14=-1,18=40,26=3/3(-5);
 2/15=1,29=3/2;
 6/7=2,8=2,9=2,10=2,19=2,28=1/1;
 99/9=1/99;
 Leave Link    1 at Mon May 13 15:46:22 2024, MaxMem=  4294967296 cpu:         0.2
 (Enter /g100_work/pMI24_ChiCa/g09d1/g09d01/d01/build-node-6-2-59348/src/main/l101.exe)
 ----------------
 Acetone molecule
 ----------------
 Symbolic Z-matrix:
 Charge =  0 Multiplicity = 1
 c
 o                    1    oc2
 c                    1    cc3      2    cco3
 c                    1    cc4      2    cco4     3    dih4     0
 h                    4    hc5      1    hcc5     2    dih5     0
 h                    4    hc6      1    hcc6     5    dih6     0
 h                    4    hc7      1    hcc7     5    dih7     0
 h                    3    hc8      1    hcc8     2    dih8     0
 h                    3    hc9      1    hcc9     8    dih9     0
 h                    3    hc10     1    hcc10    8    dih10    0
       Variables:
  oc2                   1.4                      
  cc3                   1.45                     
  cco3                109.471                    
  cc4                   1.45                     
  cco4                109.471                    
  dih4                120.                       
  hc5                   1.089                    
  hcc5                109.471                    
  dih5                180.                       
  hc6                   1.089                    
  hcc6                109.471                    
  dih6                120.                       
  hc7                   1.089                    
  hcc7                109.471                    
  dih7                240.                       
  hc8                   1.089                    
  hcc8                109.471                    
  dih8                180.                       
  hc9                   1.089                    
  hcc9                109.471                    
  dih9                120.                       
  hc10                  1.089                    
  hcc10               109.471                    
  dih10               240.                       
 
     8 tetrahedral angles replaced.
 NAtoms=     10 NQM=       10 NQMF=       0 NMMI=      0 NMMIF=      0
                NMic=       0 NMicF=      0.
    8 tetrahedral angles replaced.
                    Isotopes and Nuclear Properties:
 (Nuclear quadrupole moments (NQMom) in fm**2, nuclear magnetic moments (NMagM)
  in nuclear magnetons)

  Atom         1           2           3           4           5           6           7           8           9          10
 IAtWgt=          12          16          12          12           1           1           1           1           1           1
 AtmWgt=  12.0000000  15.9949146  12.0000000  12.0000000   1.0078250   1.0078250   1.0078250   1.0078250   1.0078250   1.0078250
 NucSpn=           0           0           0           0           1           1           1           1           1           1
 AtZEff=   0.0000000   0.0000000   0.0000000   0.0000000   0.0000000   0.0000000   0.0000000   0.0000000   0.0000000   0.0000000
 NQMom=    0.0000000   0.0000000   0.0000000   0.0000000   0.0000000   0.0000000   0.0000000   0.0000000   0.0000000   0.0000000
 NMagM=    0.0000000   0.0000000   0.0000000   0.0000000   2.7928460   2.7928460   2.7928460   2.7928460   2.7928460   2.7928460
 AtZNuc=   6.0000000   8.0000000   6.0000000   6.0000000   1.0000000   1.0000000   1.0000000   1.0000000   1.0000000   1.0000000
 Leave Link  101 at Mon May 13 15:46:22 2024, MaxMem=  4294967296 cpu:         0.2
 (Enter /g100_work/pMI24_ChiCa/g09d1/g09d01/d01/build-node-6-2-59348/src/main/l103.exe)

 GradGradGradGradGradGradGradGradGradGradGradGradGradGradGradGradGradGrad
 Berny optimization.
 Initialization pass.
                       ----------------------------
                       !    Initial Parameters    !
                       ! (Angstroms and Degrees)  !
 ----------------------                            ----------------------
 !      Name          Value   Derivative information (Atomic Units)     !
 ------------------------------------------------------------------------
 !       oc2         1.4      estimate D2E/DX2                          !
 !       cc3         1.45     estimate D2E/DX2                          !
 !      cco3       109.4712   estimate D2E/DX2                          !
 !       cc4         1.45     estimate D2E/DX2                          !
 !      cco4       109.4712   estimate D2E/DX2                          !
 !      dih4       120.0      estimate D2E/DX2                          !
 !       hc5         1.089    estimate D2E/DX2                          !
 !      hcc5       109.4712   estimate D2E/DX2                          !
 !      dih5       180.0      estimate D2E/DX2                          !
 !       hc6         1.089    estimate D2E/DX2                          !
 !      hcc6       109.4712   estimate D2E/DX2                          !
 !      dih6       120.0      estimate D2E/DX2                          !
 !       hc7         1.089    estimate D2E/DX2                          !
 !      hcc7       109.4712   estimate D2E/DX2                          !
 !      dih7       240.0      estimate D2E/DX2                          !
 !       hc8         1.089    estimate D2E/DX2                          !
 !      hcc8       109.4712   estimate D2E/DX2                          !
 !      dih8       180.0      estimate D2E/DX2                          !
 !       hc9         1.089    estimate D2E/DX2                          !
 !      hcc9       109.4712   estimate D2E/DX2                          !
 !      dih9       120.0      estimate D2E/DX2                          !
 !      hc10         1.089    estimate D2E/DX2                          !
 !      hcc10      109.4712   estimate D2E/DX2                          !
 !      dih10      240.0      estimate D2E/DX2                          !
 ------------------------------------------------------------------------
 Trust Radius=3.00D-01 FncErr=1.00D-07 GrdErr=1.00D-06
 Number of steps in this run=     34 maximum allowed number of steps=    100.
 GradGradGradGradGradGradGradGradGradGradGradGradGradGradGradGradGradGrad

 Leave Link  103 at Mon May 13 15:46:22 2024, MaxMem=  4294967296 cpu:         0.2
 (Enter /g100_work/pMI24_ChiCa/g09d1/g09d01/d01/build-node-6-2-59348/src/main/l202.exe)
 ---------------------------------------------------------------------------------------------------
                            Z-MATRIX (ANGSTROMS AND DEGREES)
   CD    Cent   Atom    N1       Length/X        N2       Alpha/Y        N3        Beta/Z          J
 ---------------------------------------------------------------------------------------------------
      1      1  C 
      2      2  O        1   1.400000(     1)
      3      3  C        1   1.450000(     2)      2  109.471(    10)
      4      4  C        1   1.450000(     3)      2  109.471(    11)      3  120.000(    18)      0
      5      5  H        4   1.089000(     4)      1  109.471(    12)      2  180.000(    19)      0
      6      6  H        4   1.089000(     5)      1  109.471(    13)      5  120.000(    20)      0
      7      7  H        4   1.089000(     6)      1  109.471(    14)      5  240.000(    21)      0
      8      8  H        3   1.089000(     7)      1  109.471(    15)      2  180.000(    22)      0
      9      9  H        3   1.089000(     8)      1  109.471(    16)      8  120.000(    23)      0
     10     10  H        3   1.089000(     9)      1  109.471(    17)      8  240.000(    24)      0
 ---------------------------------------------------------------------------------------------------
                         Z-Matrix orientation:                         
 ---------------------------------------------------------------------
 Center     Atomic      Atomic             Coordinates (Angstroms)
 Number     Number       Type             X           Y           Z
 ---------------------------------------------------------------------
      1          6           0        0.000000    0.000000    0.000000
      2          8           0        0.000000    0.000000    1.400000
      3          6           0        1.367073    0.000000   -0.483333
      4          6           0       -0.683537   -1.183920   -0.483333
      5          1           0       -0.683537   -1.183920   -1.572333
      6          1           0       -0.170177   -2.073085   -0.120333
      7          1           0       -1.710256   -1.183920   -0.120333
      8          1           0        1.367073   -0.000000   -1.572333
      9          1           0        1.880433    0.889165   -0.120333
     10          1           0        1.880433   -0.889165   -0.120333
 ---------------------------------------------------------------------
                    Distance matrix (angstroms):
                    1          2          3          4          5
     1  C    0.000000
     2  O    1.400000   0.000000
     3  C    1.450000   2.327194   0.000000
     4  C    1.450000   2.327194   2.367840   0.000000
     5  H    2.083536   3.271644   2.606259   1.089000   0.000000
     6  H    2.083536   2.576442   2.606259   1.089000   1.778330
     7  H    2.083536   2.576442   3.317135   1.089000   1.778330
     8  H    2.083536   3.271644   1.089000   2.606259   2.367840
     9  H    2.083536   2.576442   1.089000   3.317135   3.602766
    10  H    2.083536   2.576442   1.089000   2.606259   2.961270
                    6          7          8          9         10
     6  H    0.000000
     7  H    1.778330   0.000000
     8  H    2.961270   3.602766   0.000000
     9  H    3.602766   4.146170   1.778330   0.000000
    10  H    2.367840   3.602766   1.778330   1.778330   0.000000
 Symmetry turned off by external request.
 Stoichiometry    C3H6O
 Framework group  CS[SG(CO),X(C2H6)]
 Deg. of freedom    13
 Full point group                 CS      NOp   2
 Rotational constants (GHZ):      9.8685155      9.5021815      5.3802650
 Leave Link  202 at Mon May 13 15:46:22 2024, MaxMem=  4294967296 cpu:         0.6
 (Enter /g100_work/pMI24_ChiCa/g09d1/g09d01/d01/build-node-6-2-59348/src/main/l301.exe)
 Standard basis: 6-31+G(d,p) (6D, 7F)
 Ernie: Thresh=  0.10000D-02 Tol=  0.10000D-05 Strict=F.
   106 basis functions,   170 primitive gaussians,   106 cartesian basis functions
    16 alpha electrons       16 beta electrons
       nuclear repulsion energy       120.1838325305 Hartrees.
 IExCor=  402 DFT=T Ex+Corr=B3LYP ExCW=0 ScaHFX=  0.200000
 ScaDFX=  0.800000  0.720000  1.000000  0.810000 ScalE2=  1.000000  1.000000
 IRadAn=      0 IRanWt=     -1 IRanGd=            0 ICorTp=0 IEmpDi=  4
 NAtoms=   10 NActive=   10 NUniq=   10 SFac= 1.00D+00 NAtFMM=   60 NAOKFM=F Big=F
 Integral buffers will be    131072 words long.
 Raffenetti 2 integral format.
 Two-electron integral symmetry is turned off.
 Leave Link  301 at Mon May 13 15:46:22 2024, MaxMem=  4294967296 cpu:         0.2
 (Enter /g100_work/pMI24_ChiCa/g09d1/g09d01/d01/build-node-6-2-59348/src/main/l302.exe)
 NPDir=0 NMtPBC=     1 NCelOv=     1 NCel=       1 NClECP=     1 NCelD=      1
         NCelK=      1 NCelE2=     1 NClLst=     1 CellRange=     0.0.
 One-electron integrals computed using PRISM.
 NBasis=   106 RedAO= T EigKep=  1.18D-04  NBF=   106
 NBsUse=   106 1.00D-06 EigRej= -1.00D+00 NBFU=   106
 Precomputing XC quadrature grid using
 IXCGrd= 4 IRadAn=           0 IRanWt=          -1 IRanGd=           0 AccXCQ= 0.00D+00.
 Generated NRdTot=       0 NPtTot=           0 NUsed=           0 NTot=          32
 NSgBfM=   106   106   106   106   106 MxSgAt=    10 MxSgA2=    10.
 Leave Link  302 at Mon May 13 15:46:23 2024, MaxMem=  4294967296 cpu:         1.9
 (Enter /g100_work/pMI24_ChiCa/g09d1/g09d01/d01/build-node-6-2-59348/src/main/l303.exe)
 DipDrv:  MaxL=1.
 Leave Link  303 at Mon May 13 15:46:23 2024, MaxMem=  4294967296 cpu:         0.2
 (Enter /g100_work/pMI24_ChiCa/g09d1/g09d01/d01/build-node-6-2-59348/src/main/l401.exe)
 ExpMin= 4.38D-02 ExpMax= 5.48D+03 ExpMxC= 8.25D+02 IAcc=2 IRadAn=         4 AccDes= 0.00D+00
 Harris functional with IExCor=  402 and IRadAn=       4 diagonalized for initial guess.
 HarFok:  IExCor=  402 AccDes= 0.00D+00 IRadAn=         4 IDoV= 1 UseB2=F ITyADJ=14
 ICtDFT=  3500011 ScaDFX=  1.000000  1.000000  1.000000  1.000000
 FoFCou: FMM=F IPFlag=           0 FMFlag=      100000 FMFlg1=           0
         NFxFlg=           0 DoJE=T BraDBF=F KetDBF=T FulRan=T
         wScrn=  0.000000 ICntrl=     500 IOpCl=  0 I1Cent=   200000004 NGrid=           0
         NMat0=    1 NMatS0=      1 NMatT0=    0 NMatD0=    1 NMtDS0=    0 NMtDT0=    0
 Symmetry not used in FoFCou.
 Harris En= -193.136581584603    
 JPrj=0 DoOrth=F DoCkMO=F.
 Leave Link  401 at Mon May 13 15:46:23 2024, MaxMem=  4294967296 cpu:         2.5
 (Enter /g100_work/pMI24_ChiCa/g09d1/g09d01/d01/build-node-6-2-59348/src/main/l502.exe)
 Closed shell SCF:
 Using DIIS extrapolation, IDIIS=  1040.
 Two-electron integral symmetry not used.
 Keep R1 ints in memory in canonical form, NReq=17066584.
 IVT=       56306 IEndB=       56306 NGot=  4294967296 MDV=  4278828035
 LenX=  4278828035 LenY=  4278816358
 Requested convergence on RMS density matrix=1.00D-08 within 128 cycles.
 Requested convergence on MAX density matrix=1.00D-06.
 Requested convergence on             energy=1.00D-06.
 No special actions if energy rises.
 FoFCou: FMM=F IPFlag=           0 FMFlag=           0 FMFlg1=           0
         NFxFlg=           0 DoJE=F BraDBF=F KetDBF=F FulRan=T
         wScrn=  0.000000 ICntrl=     600 IOpCl=  0 I1Cent=           0 NGrid=           0
         NMat0=    1 NMatS0=   5671 NMatT0=    0 NMatD0=    1 NMtDS0=    0 NMtDT0=    0
 Symmetry not used in FoFCou.

 Cycle   1  Pass 1  IDiag  1:
 E= -192.892897304659    
 DIIS: error= 3.19D-02 at cycle   1 NSaved=   1.
 NSaved= 1 IEnMin= 1 EnMin= -192.892897304659     IErMin= 1 ErrMin= 3.19D-02
 ErrMax= 3.19D-02  0.00D+00 EMaxC= 1.00D-01 BMatC= 1.94D-01 BMatP= 1.94D-01
 IDIUse=3 WtCom= 6.81D-01 WtEn= 3.19D-01
 Coeff-Com:  0.100D+01
 Coeff-En:   0.100D+01
 Coeff:      0.100D+01
 Gap=    -0.018 Goal=   None    Shift=    0.000
 GapD=   -0.018 DampG=0.250 DampE=0.500 DampFc=0.2500 IDamp=-1.
 Damping current iteration by 2.50D-01
 RMSDP=1.79D-02 MaxDP=3.48D-01              OVMax= 4.65D-01

 Cycle   2  Pass 1  IDiag  1:
 E= -192.953826842650     Delta-E=       -0.060929537991 Rises=F Damp=T
 DIIS: error= 1.73D-02 at cycle   2 NSaved=   2.
 NSaved= 2 IEnMin= 2 EnMin= -192.953826842650     IErMin= 2 ErrMin= 1.73D-02
 ErrMax= 1.73D-02  0.00D+00 EMaxC= 1.00D-01 BMatC= 3.42D-02 BMatP= 1.94D-01
 IDIUse=3 WtCom= 8.27D-01 WtEn= 1.73D-01
 Coeff-Com: -0.262D+00 0.126D+01
 Coeff-En:   0.338D-01 0.966D+00
 Coeff:     -0.211D+00 0.121D+01
 Gap=     0.125 Goal=   None    Shift=    0.000
 RMSDP=5.06D-03 MaxDP=9.92D-02 DE=-6.09D-02 OVMax= 4.74D-01

 Cycle   3  Pass 1  IDiag  1:
 E= -193.001949607428     Delta-E=       -0.048122764778 Rises=F Damp=F
 DIIS: error= 3.19D-02 at cycle   3 NSaved=   3.
 NSaved= 3 IEnMin= 3 EnMin= -193.001949607428     IErMin= 2 ErrMin= 1.73D-02
 ErrMax= 3.19D-02  0.00D+00 EMaxC= 1.00D-01 BMatC= 8.73D-02 BMatP= 3.42D-02
 IDIUse=2 WtCom= 0.00D+00 WtEn= 1.00D+00
 Coeff-En:   0.000D+00 0.279D+00 0.721D+00
 Coeff:      0.000D+00 0.279D+00 0.721D+00
 Gap=     0.093 Goal=   None    Shift=    0.000
 RMSDP=7.48D-03 MaxDP=1.88D-01 DE=-4.81D-02 OVMax= 4.09D-01

 Cycle   4  Pass 1  IDiag  1:
 E= -192.716729434028     Delta-E=        0.285220173400 Rises=F Damp=F
 DIIS: error= 7.98D-02 at cycle   4 NSaved=   4.
 NSaved= 4 IEnMin= 3 EnMin= -193.001949607428     IErMin= 2 ErrMin= 1.73D-02
 ErrMax= 7.98D-02  0.00D+00 EMaxC= 1.00D-01 BMatC= 4.11D-01 BMatP= 3.42D-02
 IDIUse=2 WtCom= 0.00D+00 WtEn= 1.00D+00
 Coeff-En:   0.000D+00 0.000D+00 0.747D+00 0.253D+00
 Coeff:      0.000D+00 0.000D+00 0.747D+00 0.253D+00
 Gap=     0.116 Goal=   None    Shift=    0.000
 RMSDP=5.18D-03 MaxDP=1.11D-01 DE= 2.85D-01 OVMax= 2.74D-01

 Cycle   5  Pass 1  IDiag  1:
 E= -193.062557113890     Delta-E=       -0.345827679862 Rises=F Damp=F
 DIIS: error= 1.14D-02 at cycle   5 NSaved=   5.
 NSaved= 5 IEnMin= 5 EnMin= -193.062557113890     IErMin= 5 ErrMin= 1.14D-02
 ErrMax= 1.14D-02  0.00D+00 EMaxC= 1.00D-01 BMatC= 2.19D-02 BMatP= 3.42D-02
 IDIUse=3 WtCom= 8.86D-01 WtEn= 1.14D-01
 Coeff-Com: -0.181D+00 0.275D+00 0.315D+00-0.505D-01 0.641D+00
 Coeff-En:   0.000D+00 0.000D+00 0.248D+00 0.000D+00 0.752D+00
 Coeff:     -0.160D+00 0.243D+00 0.308D+00-0.448D-01 0.654D+00
 Gap=     0.138 Goal=   None    Shift=    0.000
 RMSDP=1.35D-03 MaxDP=2.12D-02 DE=-3.46D-01 OVMax= 4.49D-02

 Cycle   6  Pass 1  IDiag  1:
 E= -193.082561004845     Delta-E=       -0.020003890955 Rises=F Damp=F
 DIIS: error= 5.05D-04 at cycle   6 NSaved=   6.
 NSaved= 6 IEnMin= 6 EnMin= -193.082561004845     IErMin= 6 ErrMin= 5.05D-04
 ErrMax= 5.05D-04  0.00D+00 EMaxC= 1.00D-01 BMatC= 8.07D-05 BMatP= 2.19D-02
 IDIUse=3 WtCom= 9.95D-01 WtEn= 5.05D-03
 Coeff-Com: -0.593D-01 0.815D-01 0.983D-01-0.269D-01 0.259D+00 0.647D+00
 Coeff-En:   0.000D+00 0.000D+00 0.000D+00 0.000D+00 0.000D+00 0.100D+01
 Coeff:     -0.590D-01 0.810D-01 0.978D-01-0.268D-01 0.258D+00 0.649D+00
 Gap=     0.139 Goal=   None    Shift=    0.000
 RMSDP=1.75D-04 MaxDP=3.30D-03 DE=-2.00D-02 OVMax= 2.43D-03

 Cycle   7  Pass 1  IDiag  1:
 E= -193.082630636862     Delta-E=       -0.000069632016 Rises=F Damp=F
 DIIS: error= 2.63D-04 at cycle   7 NSaved=   7.
 NSaved= 7 IEnMin= 7 EnMin= -193.082630636862     IErMin= 7 ErrMin= 2.63D-04
 ErrMax= 2.63D-04  0.00D+00 EMaxC= 1.00D-01 BMatC= 1.10D-05 BMatP= 8.07D-05
 IDIUse=3 WtCom= 9.97D-01 WtEn= 2.63D-03
 Coeff-Com:  0.110D-02-0.423D-02 0.909D-02-0.388D-02 0.318D-01 0.271D+00
 Coeff-Com:  0.695D+00
 Coeff-En:   0.000D+00 0.000D+00 0.000D+00 0.000D+00 0.000D+00 0.000D+00
 Coeff-En:   0.100D+01
 Coeff:      0.110D-02-0.421D-02 0.907D-02-0.387D-02 0.317D-01 0.270D+00
 Coeff:      0.696D+00
 Gap=     0.139 Goal=   None    Shift=    0.000
 RMSDP=3.84D-05 MaxDP=6.28D-04 DE=-6.96D-05 OVMax= 9.66D-04

 Cycle   8  Pass 1  IDiag  1:
 E= -193.082639863623     Delta-E=       -0.000009226761 Rises=F Damp=F
 DIIS: error= 8.63D-05 at cycle   8 NSaved=   8.
 NSaved= 8 IEnMin= 8 EnMin= -193.082639863623     IErMin= 8 ErrMin= 8.63D-05
 ErrMax= 8.63D-05  0.00D+00 EMaxC= 1.00D-01 BMatC= 5.10D-07 BMatP= 1.10D-05
 IDIUse=1 WtCom= 1.00D+00 WtEn= 0.00D+00
 Coeff-Com:  0.213D-02-0.305D-02 0.130D-03-0.623D-03 0.692D-03 0.471D-01
 Coeff-Com:  0.127D+00 0.827D+00
 Coeff:      0.213D-02-0.305D-02 0.130D-03-0.623D-03 0.692D-03 0.471D-01
 Coeff:      0.127D+00 0.827D+00
 Gap=     0.139 Goal=   None    Shift=    0.000
 RMSDP=7.38D-06 MaxDP=1.32D-04 DE=-9.23D-06 OVMax= 2.30D-04

 Cycle   9  Pass 1  IDiag  1:
 E= -193.082640261397     Delta-E=       -0.000000397774 Rises=F Damp=F
 DIIS: error= 2.07D-05 at cycle   9 NSaved=   9.
 NSaved= 9 IEnMin= 9 EnMin= -193.082640261397     IErMin= 9 ErrMin= 2.07D-05
 ErrMax= 2.07D-05  0.00D+00 EMaxC= 1.00D-01 BMatC= 3.29D-08 BMatP= 5.10D-07
 IDIUse=1 WtCom= 1.00D+00 WtEn= 0.00D+00
 Coeff-Com:  0.539D-03-0.644D-03 0.775D-04-0.116D-03-0.456D-03 0.146D-02
 Coeff-Com: -0.446D-02 0.228D+00 0.776D+00
 Coeff:      0.539D-03-0.644D-03 0.775D-04-0.116D-03-0.456D-03 0.146D-02
 Coeff:     -0.446D-02 0.228D+00 0.776D+00
 Gap=     0.139 Goal=   None    Shift=    0.000
 RMSDP=2.98D-06 MaxDP=7.48D-05 DE=-3.98D-07 OVMax= 7.73D-05

 Cycle  10  Pass 1  IDiag  1:
 E= -193.082640291070     Delta-E=       -0.000000029672 Rises=F Damp=F
 DIIS: error= 3.01D-06 at cycle  10 NSaved=  10.
 NSaved=10 IEnMin=10 EnMin= -193.082640291070     IErMin=10 ErrMin= 3.01D-06
 ErrMax= 3.01D-06  0.00D+00 EMaxC= 1.00D-01 BMatC= 5.98D-10 BMatP= 3.29D-08
 IDIUse=1 WtCom= 1.00D+00 WtEn= 0.00D+00
 Coeff-Com: -0.516D-05 0.262D-04 0.450D-04-0.121D-04-0.339D-04-0.119D-02
 Coeff-Com: -0.418D-02-0.620D-02 0.881D-01 0.923D+00
 Coeff:     -0.516D-05 0.262D-04 0.450D-04-0.121D-04-0.339D-04-0.119D-02
 Coeff:     -0.418D-02-0.620D-02 0.881D-01 0.923D+00
 Gap=     0.139 Goal=   None    Shift=    0.000
 RMSDP=2.68D-07 MaxDP=4.88D-06 DE=-2.97D-08 OVMax= 1.32D-05

 Cycle  11  Pass 1  IDiag  1:
 E= -193.082640291622     Delta-E=       -0.000000000553 Rises=F Damp=F
 DIIS: error= 1.85D-07 at cycle  11 NSaved=  11.
 NSaved=11 IEnMin=11 EnMin= -193.082640291622     IErMin=11 ErrMin= 1.85D-07
 ErrMax= 1.85D-07  0.00D+00 EMaxC= 1.00D-01 BMatC= 3.20D-12 BMatP= 5.98D-10
 IDIUse=1 WtCom= 1.00D+00 WtEn= 0.00D+00
 Coeff-Com: -0.699D-05 0.657D-05-0.481D-05 0.522D-05-0.168D-04-0.166D-03
 Coeff-Com: -0.385D-04-0.790D-02-0.120D-01 0.133D+00 0.887D+00
 Coeff:     -0.699D-05 0.657D-05-0.481D-05 0.522D-05-0.168D-04-0.166D-03
 Coeff:     -0.385D-04-0.790D-02-0.120D-01 0.133D+00 0.887D+00
 Gap=     0.139 Goal=   None    Shift=    0.000
 RMSDP=4.53D-08 MaxDP=1.02D-06 DE=-5.53D-10 OVMax= 1.43D-06

 Cycle  12  Pass 1  IDiag  1:
 E= -193.082640291625     Delta-E=       -0.000000000002 Rises=F Damp=F
 DIIS: error= 4.87D-08 at cycle  12 NSaved=  12.
 NSaved=12 IEnMin=12 EnMin= -193.082640291625     IErMin=12 ErrMin= 4.87D-08
 ErrMax= 4.87D-08  0.00D+00 EMaxC= 1.00D-01 BMatC= 2.05D-13 BMatP= 3.20D-12
 IDIUse=1 WtCom= 1.00D+00 WtEn= 0.00D+00
 Coeff-Com: -0.204D-05 0.229D-05-0.168D-05 0.496D-06 0.125D-05 0.215D-04
 Coeff-Com:  0.101D-03-0.651D-03-0.348D-02-0.105D-01 0.271D-01 0.987D+00
 Coeff:     -0.204D-05 0.229D-05-0.168D-05 0.496D-06 0.125D-05 0.215D-04
 Coeff:      0.101D-03-0.651D-03-0.348D-02-0.105D-01 0.271D-01 0.987D+00
 Gap=     0.139 Goal=   None    Shift=    0.000
 RMSDP=1.05D-08 MaxDP=3.16D-07 DE=-2.39D-12 OVMax= 5.00D-07

 Cycle  13  Pass 1  IDiag  1:
 E= -193.082640291628     Delta-E=       -0.000000000004 Rises=F Damp=F
 DIIS: error= 2.06D-08 at cycle  13 NSaved=  13.
 NSaved=13 IEnMin=13 EnMin= -193.082640291628     IErMin=13 ErrMin= 2.06D-08
 ErrMax= 2.06D-08  0.00D+00 EMaxC= 1.00D-01 BMatC= 2.91D-14 BMatP= 2.05D-13
 IDIUse=1 WtCom= 1.00D+00 WtEn= 0.00D+00
 Coeff-Com: -0.306D-06 0.426D-06-0.425D-06 0.456D-07 0.605D-06 0.598D-05
 Coeff-Com:  0.274D-05 0.149D-03-0.908D-04-0.742D-02-0.495D-01 0.227D+00
 Coeff-Com:  0.830D+00
 Coeff:     -0.306D-06 0.426D-06-0.425D-06 0.456D-07 0.605D-06 0.598D-05
 Coeff:      0.274D-05 0.149D-03-0.908D-04-0.742D-02-0.495D-01 0.227D+00
 Coeff:      0.830D+00
 Gap=     0.139 Goal=   None    Shift=    0.000
 RMSDP=2.77D-09 MaxDP=6.08D-08 DE=-3.58D-12 OVMax= 9.50D-08

 SCF Done:  E(RB3LYP) =  -193.082640292     A.U. after   13 cycles
            NFock= 13  Conv=0.28D-08     -V/T= 2.0095
 KE= 1.912580550044D+02 PE=-6.899496053222D+02 EE= 1.854250774957D+02
 Leave Link  502 at Mon May 13 15:46:24 2024, MaxMem=  4294967296 cpu:        17.5
 (Enter /g100_work/pMI24_ChiCa/g09d1/g09d01/d01/build-node-6-2-59348/src/main/l601.exe)
 Copying SCF densities to generalized density rwf, IOpCl= 0 IROHF=0.

 **********************************************************************

            Population analysis using the SCF density.

 **********************************************************************

 Alpha  occ. eigenvalues --  -19.16012 -10.29442 -10.20129 -10.20128  -0.98047
 Alpha  occ. eigenvalues --   -0.80096  -0.72281  -0.55290  -0.48087  -0.46810
 Alpha  occ. eigenvalues --   -0.45691  -0.41614  -0.37994  -0.37590  -0.31526
 Alpha  occ. eigenvalues --   -0.25809
 Alpha virt. eigenvalues --   -0.11864   0.00778   0.02760   0.03574   0.04913
 Alpha virt. eigenvalues --    0.05948   0.07075   0.07691   0.08570   0.09186
 Alpha virt. eigenvalues --    0.11593   0.12646   0.14465   0.18307   0.19230
 Alpha virt. eigenvalues --    0.20833   0.22086   0.24886   0.25046   0.27040
 Alpha virt. eigenvalues --    0.28021   0.31552   0.31590   0.32125   0.32973
 Alpha virt. eigenvalues --    0.36359   0.59857   0.60331   0.62558   0.67062
 Alpha virt. eigenvalues --    0.67694   0.71732   0.73189   0.75715   0.78039
 Alpha virt. eigenvalues --    0.91291   0.92051   0.95215   0.95807   1.04043
 Alpha virt. eigenvalues --    1.08321   1.09199   1.15241   1.20220   1.22271
 Alpha virt. eigenvalues --    1.34021   1.35044   1.39171   1.40978   1.56021
 Alpha virt. eigenvalues --    1.58192   1.71683   1.72244   1.82353   1.84145
 Alpha virt. eigenvalues --    1.88523   1.96810   2.00480   2.01148   2.02046
 Alpha virt. eigenvalues --    2.02109   2.08088   2.08477   2.10916   2.14011
 Alpha virt. eigenvalues --    2.21467   2.23335   2.37638   2.38108   2.48263
 Alpha virt. eigenvalues --    2.58431   2.60270   2.65434   2.69581   2.74136
 Alpha virt. eigenvalues --    2.83691   2.88248   2.91661   2.93612   3.09991
 Alpha virt. eigenvalues --    3.23513   3.27059   3.40393   3.41096   3.46616
 Alpha virt. eigenvalues --    3.48382   4.19748   4.36507   4.49920   4.59386
          Condensed to atoms (all electrons):
               1          2          3          4          5          6
     1  C    5.083356   0.498696   0.185236   0.185215  -0.082552  -0.017790
     2  O    0.498696   8.202088  -0.148283  -0.148277   0.011152  -0.024862
     3  C    0.185236  -0.148283   5.325780  -0.082609   0.013046  -0.004217
     4  C    0.185215  -0.148277  -0.082609   5.325820   0.398315   0.400887
     5  H   -0.082552   0.011152   0.013046   0.398315   0.577833  -0.035136
     6  H   -0.017790  -0.024862  -0.004217   0.400887  -0.035136   0.508643
     7  H   -0.033645  -0.003837   0.003829   0.394011  -0.024851  -0.017625
     8  H   -0.082620   0.011153   0.398384   0.013049   0.000657  -0.000510
     9  H   -0.033662  -0.003829   0.394008   0.003837   0.000152   0.000252
    10  H   -0.017750  -0.024869   0.400862  -0.004221  -0.000511  -0.000149
               7          8          9         10
     1  C   -0.033645  -0.082620  -0.033662  -0.017750
     2  O   -0.003837   0.011153  -0.003829  -0.024869
     3  C    0.003829   0.398384   0.394008   0.400862
     4  C    0.394011   0.013049   0.003837  -0.004221
     5  H   -0.024851   0.000657   0.000152  -0.000511
     6  H   -0.017625  -0.000510   0.000252  -0.000149
     7  H    0.501555   0.000152  -0.000271   0.000252
     8  H    0.000152   0.577832  -0.024852  -0.035138
     9  H   -0.000271  -0.024852   0.501561  -0.017621
    10  H    0.000252  -0.035138  -0.017621   0.508616
 Mulliken charges:
               1
     1  C    0.315516
     2  O   -0.369132
     3  C   -0.486035
     4  C   -0.486027
     5  H    0.141895
     6  H    0.190507
     7  H    0.180430
     8  H    0.141893
     9  H    0.180425
    10  H    0.190528
 Sum of Mulliken charges =  -0.00000
 Mulliken charges with hydrogens summed into heavy atoms:
               1
     1  C    0.315516
     2  O   -0.369132
     3  C    0.026812
     4  C    0.026804
 Electronic spatial extent (au):  <R**2>=            297.1386
 Charge=             -0.0000 electrons
 Dipole moment (field-independent basis, Debye):
    X=              0.5661    Y=             -0.9804    Z=             -3.1553  Tot=              3.3522
 Quadrupole moment (field-independent basis, Debye-Ang):
   XX=            -24.1440   YY=            -23.7501   ZZ=            -30.1606
   XY=             -0.3412   XZ=              0.3228   YZ=             -0.5590
 Traceless Quadrupole moment (field-independent basis, Debye-Ang):
   XX=              1.8743   YY=              2.2681   ZZ=             -4.1424
   XY=             -0.3412   XZ=              0.3228   YZ=             -0.5590
 Octapole moment (field-independent basis, Debye-Ang**2):
  XXX=            -15.4477  YYY=             25.1181  ZZZ=             -9.3867  XYY=             -3.8881
  XXY=              8.3726  XXZ=              0.0492  XZZ=             -5.1958  YZZ=              8.9994
  YYZ=              0.3691  XYZ=             -0.2772
 Hexadecapole moment (field-independent basis, Debye-Ang**3):
 XXXX=           -151.5509 YYYY=           -102.8418 ZZZZ=           -141.2363 XXXY=            -20.4597
 XXXZ=              9.4933 YYYX=            -21.7242 YYYZ=            -16.6566 ZZZX=              8.7991
 ZZZY=            -15.2401 XXYY=            -41.9121 XXZZ=            -51.1457 YYZZ=            -42.1523
 XXYZ=             -5.5523 YYXZ=              3.3293 ZZXY=             -7.7885
 N-N= 1.201838325305D+02 E-N=-6.899496053668D+02  KE= 1.912580550044D+02
 No NMR shielding tensors so no spin-rotation constants.
 Leave Link  601 at Mon May 13 15:46:24 2024, MaxMem=  4294967296 cpu:         2.0
 (Enter /g100_work/pMI24_ChiCa/g09d1/g09d01/d01/build-node-6-2-59348/src/main/l701.exe)
 Compute integral first derivatives.
 ... and contract with generalized density number  0.
 Leave Link  701 at Mon May 13 15:46:24 2024, MaxMem=  4294967296 cpu:         2.0
 (Enter /g100_work/pMI24_ChiCa/g09d1/g09d01/d01/build-node-6-2-59348/src/main/l702.exe)
 L702 exits ... SP integral derivatives will be done elsewhere.
 Leave Link  702 at Mon May 13 15:46:24 2024, MaxMem=  4294967296 cpu:         0.2
 (Enter /g100_work/pMI24_ChiCa/g09d1/g09d01/d01/build-node-6-2-59348/src/main/l703.exe)
 Compute integral first derivatives, UseDBF=F ICtDFT=           0.
 Integral derivatives from FoFJK, PRISM(SPDF).
 Calling FoFJK, ICntrl=      2127 FMM=F ISym2X=0 I1Cent= 0 IOpClX= 0 NMat=1 NMatS=1 NMatT=0.
 FoFJK:  IHMeth= 1 ICntrl=    2127 DoSepK=F KAlg= 0 I1Cent=   0 FoldK=F
 IRaf=         0 NMat=   1 IRICut=       1 DoRegI=T DoRafI=F ISym2E= 0.
 FoFCou: FMM=F IPFlag=           0 FMFlag=      100000 FMFlg1=         800
         NFxFlg=           0 DoJE=F BraDBF=F KetDBF=F FulRan=T
         wScrn=  0.000000 ICntrl=    2127 IOpCl=  0 I1Cent=           0 NGrid=           0
         NMat0=    1 NMatS0=      1 NMatT0=    0 NMatD0=    1 NMtDS0=    0 NMtDT0=    0
 Symmetry not used in FoFCou.
 Leave Link  703 at Mon May 13 15:46:25 2024, MaxMem=  4294967296 cpu:         8.2
 (Enter /g100_work/pMI24_ChiCa/g09d1/g09d01/d01/build-node-6-2-59348/src/main/l716.exe)
 Dipole        = 2.22710590D-01-3.85727825D-01-1.24137385D+00
 -------------------------------------------------------------------
 Center     Atomic                   Forces (Hartrees/Bohr)
 Number     Number              X              Y              Z
 -------------------------------------------------------------------
      1        6           0.042169666   -0.073070130    0.193284916
      2        8          -0.021996635    0.038096737   -0.118681491
      3        6           0.029408828    0.050254526   -0.032321888
      4        6          -0.058193162   -0.000355620   -0.032297356
      5        1          -0.004104293   -0.007188120   -0.005716442
      6        1           0.001847310    0.000685324    0.001223217
      7        1          -0.004744000   -0.007497306   -0.000527692
      8        1           0.008250409   -0.000053050   -0.005699815
      9        1           0.008853894    0.000355793   -0.000518381
     10        1          -0.001492018   -0.001228153    0.001254932
 -------------------------------------------------------------------
 Cartesian Forces:  Max     0.193284916 RMS     0.048212068
 -----------------------------------------------------------------------------------------------
                       Internal Coordinate Forces (Hartree/Bohr or radian)
  Cent   Atom   N1       Length/X         N2         Alpha/Y        N3         Beta/Z          J
 -----------------------------------------------------------------------------------------------
      1  C 
      2  O        1  -0.118681(     1)
      3  C        1   0.054875(     2)      2   0.042558(    10)
      4  C        1   0.054894(     3)      2   0.042611(    11)      3   0.108999(    18)     0
      5  H        4   0.005716(     4)      1   0.017034(    12)      2  -0.003835(    19)     0
      6  H        4   0.000719(     5)      1  -0.004535(    13)      5  -0.000132(    20)     0
      7  H        4   0.004297(     6)      1   0.015501(    14)      5  -0.003780(    21)     0
      8  H        3   0.005700(     7)      1   0.016979(    15)      2   0.003729(    22)     0
      9  H        3   0.004291(     8)      1   0.015475(    16)      8   0.003793(    23)     0
     10  H        3   0.000718(     9)      1  -0.004506(    17)      8   0.000039(    24)     0
 -----------------------------------------------------------------------------------------------
 Internal  Forces:  Max     0.118681491 RMS     0.039198770
 Force constants in Cartesian coordinates: 
                1             2             3             4             5 
      1  0.558241D+00
      2  0.126903D+00  0.411706D+00
      3 -0.487720D-01  0.844755D-01  0.703880D+00
      4 -0.659553D-01 -0.163048D-01 -0.163387D-01  0.498536D-01
      5 -0.163048D-01 -0.471281D-01  0.282994D-01  0.124094D-01  0.355245D-01
      6  0.000000D+00  0.000000D+00 -0.456205D+00  0.000000D+00  0.000000D+00
      7 -0.358052D+00 -0.469651D-02  0.859036D-01  0.115099D-01 -0.250094D-04
      8  0.210625D-01 -0.899299D-01 -0.223943D-01 -0.737233D-04  0.234277D-02
      9  0.690063D-01 -0.132837D-01 -0.139477D+00  0.325548D-01 -0.707372D-04
     10 -0.149874D+00 -0.991293D-01 -0.235578D-01  0.459179D-02  0.392043D-02
     11 -0.124888D+00 -0.298108D+00 -0.855919D-01  0.396914D-02  0.926084D-02
     12 -0.229991D-01 -0.664031D-01 -0.139477D+00 -0.162161D-01 -0.282287D-01
     13  0.207722D-02  0.318424D-02 -0.107374D-01  0.221203D-02 -0.127712D-02
     14  0.428031D-02  0.765251D-02 -0.247980D-01 -0.127712D-02  0.737343D-03
     15  0.000000D+00  0.000000D+00  0.000000D+00  0.000000D+00  0.000000D+00
     16  0.147174D-01 -0.109885D-01  0.610282D-02 -0.147469D-02  0.851411D-03
     17  0.109592D-01 -0.949094D-02  0.774932D-02  0.000000D+00  0.000000D+00
     18  0.603090D-02 -0.770780D-02  0.103512D-01  0.208552D-02 -0.120408D-02
     19 -0.310974D-02  0.103206D-02  0.186982D-02 -0.737343D-03  0.425705D-03
     20 -0.220118D-01  0.770337D-02  0.122600D-01  0.127712D-02 -0.737343D-03
     21 -0.879566D-02  0.291909D-02  0.528866D-02 -0.208552D-02  0.120408D-02
     22  0.949094D-02  0.000000D+00  0.268444D-01  0.000000D+00  0.000000D+00
     23 -0.109607D-02  0.238797D-03 -0.310015D-02  0.000000D+00  0.294937D-02
     24  0.000000D+00  0.000000D+00  0.000000D+00  0.000000D+00  0.000000D+00
     25 -0.408439D-02 -0.214490D-01 -0.115524D-01  0.000000D+00  0.851411D-03
     26  0.159477D-02  0.867801D-02  0.451069D-02  0.000000D+00 -0.147469D-02
     27  0.186982D-02  0.907681D-02  0.528866D-02  0.000000D+00  0.240815D-02
     28 -0.345157D-02  0.214490D-01 -0.976252D-02  0.000000D+00 -0.851411D-03
     29 -0.498700D-03  0.867801D-02 -0.141054D-02  0.000000D+00 -0.147469D-02
     30  0.365970D-02 -0.907681D-02  0.103512D-01  0.000000D+00 -0.240815D-02
                6             7             8             9            10 
      6  0.456205D+00
      7  0.000000D+00  0.703028D+00
      8  0.000000D+00  0.375300D-02  0.681104D+00
      9  0.000000D+00 -0.885230D-03  0.106151D-01  0.700837D+00
     10  0.000000D+00 -0.424968D-02 -0.247418D-01 -0.120199D-01  0.689835D+00
     11  0.000000D+00  0.968520D-03  0.947581D-02  0.273939D-02  0.113697D-01
     12  0.000000D+00  0.363758D-02  0.117792D-01  0.102886D-01 -0.875032D-02
     13  0.000000D+00 -0.711918D-03  0.123308D-02 -0.201361D-02 -0.825205D-01
     14  0.000000D+00  0.411026D-03 -0.711918D-03  0.116256D-02  0.519545D-02
     15  0.000000D+00  0.000000D+00  0.000000D+00  0.000000D+00  0.000000D+00
     16  0.000000D+00  0.474612D-03 -0.822052D-03  0.134241D-02 -0.136527D+00
     17  0.000000D+00  0.000000D+00  0.000000D+00  0.000000D+00  0.108568D+00
     18  0.000000D+00 -0.671203D-03  0.116256D-02 -0.189845D-02 -0.349489D-01
     19  0.000000D+00  0.237306D-03 -0.411026D-03  0.671203D-03 -0.321256D+00
     20  0.000000D+00 -0.411026D-03  0.711918D-03 -0.116256D-02 -0.518207D-02
     21  0.000000D+00  0.671203D-03 -0.116256D-02  0.189845D-02  0.792769D-01
     22  0.000000D+00 -0.735217D-01  0.000000D+00  0.891521D-02  0.000000D+00
     23  0.000000D+00  0.274017D-03 -0.856783D-01  0.775038D-03  0.822052D-03
     24  0.000000D+00  0.000000D+00  0.000000D+00 -0.349285D+00  0.000000D+00
     25  0.000000D+00 -0.139278D+00 -0.110247D+00 -0.485619D-01  0.237306D-03
     26  0.000000D+00 -0.103242D+00 -0.258657D+00 -0.694261D-01 -0.411026D-03
     27  0.000000D+00 -0.441043D-01 -0.660775D-01 -0.110549D+00  0.671203D-03
     28  0.000000D+00 -0.139436D+00  0.110247D+00 -0.490093D-01 -0.237306D-03
     29  0.000000D+00  0.102968D+00 -0.258657D+00  0.686511D-01 -0.411026D-03
     30  0.000000D+00 -0.445517D-01  0.660775D-01 -0.111815D+00 -0.671203D-03
               11            12            13            14            15 
     11  0.694297D+00
     12  0.607417D-02  0.700837D+00
     13  0.546946D-02 -0.512881D-02  0.628117D-01
     14 -0.766795D-01 -0.733328D-02 -0.330880D-02  0.589910D-01
     15  0.000000D+00 -0.349285D+00  0.000000D+00  0.000000D+00  0.349285D+00
     16  0.101288D+00 -0.349489D-01  0.348402D-02 -0.529827D-02  0.000000D+00
     17 -0.261566D+00  0.767689D-01 -0.529309D-02  0.958698D-02  0.000000D+00
     18  0.716217D-01 -0.111815D+00 -0.178925D-01  0.309761D-01  0.000000D+00
     19  0.182315D-02  0.844057D-01  0.126474D-01 -0.259281D-05  0.000000D+00
     20 -0.766795D-01  0.734274D-02 -0.777844D-05  0.423568D-03  0.000000D+00
     21  0.515666D-02 -0.110549D+00  0.357723D-01 -0.733358D-05  0.000000D+00
     22  0.000000D+00  0.000000D+00  0.000000D+00  0.000000D+00  0.000000D+00
     23 -0.142384D-02  0.232511D-02  0.000000D+00  0.000000D+00  0.000000D+00
     24  0.000000D+00  0.000000D+00  0.000000D+00  0.000000D+00  0.000000D+00
     25 -0.411026D-03  0.671203D-03  0.000000D+00  0.000000D+00  0.000000D+00
     26  0.711918D-03 -0.116256D-02  0.000000D+00  0.000000D+00  0.000000D+00
     27 -0.116256D-02  0.189845D-02  0.000000D+00  0.000000D+00  0.000000D+00
     28  0.411026D-03 -0.671203D-03  0.000000D+00  0.000000D+00  0.000000D+00
     29  0.711918D-03 -0.116256D-02  0.000000D+00  0.000000D+00  0.000000D+00
     30  0.116256D-02 -0.189845D-02  0.000000D+00  0.000000D+00  0.000000D+00
               16            17            18            19            20 
     16  0.124562D+00
     17 -0.112469D+00  0.251883D+00
     18  0.423132D-01 -0.795278D-01  0.946420D-01
     19 -0.523596D-02 -0.176436D-02  0.308298D-02  0.317454D+00
     20  0.274384D-01  0.958698D-02 -0.153206D-01 -0.110293D-02  0.589910D-01
     21 -0.148095D-01 -0.499037D-02  0.871999D-02 -0.900297D-01 -0.311957D-02
     22  0.000000D+00  0.000000D+00  0.000000D+00  0.000000D+00  0.000000D+00
     23  0.000000D+00  0.000000D+00  0.000000D+00  0.000000D+00  0.000000D+00
     24  0.000000D+00  0.000000D+00  0.000000D+00  0.000000D+00  0.000000D+00
     25  0.000000D+00  0.000000D+00  0.000000D+00  0.000000D+00  0.000000D+00
     26  0.000000D+00  0.000000D+00  0.000000D+00  0.000000D+00  0.000000D+00
     27  0.000000D+00  0.000000D+00  0.000000D+00  0.000000D+00  0.000000D+00
     28  0.000000D+00  0.000000D+00  0.000000D+00  0.000000D+00  0.000000D+00
     29  0.000000D+00  0.000000D+00  0.000000D+00  0.000000D+00  0.000000D+00
     30  0.000000D+00  0.000000D+00  0.000000D+00  0.000000D+00  0.000000D+00
               21            22            23            24            25 
     21  0.946420D-01
     22  0.000000D+00  0.570807D-01
     23  0.000000D+00  0.000000D+00  0.647220D-01
     24  0.000000D+00  0.000000D+00  0.000000D+00  0.349285D+00
     25  0.000000D+00  0.347504D-02  0.528790D-02  0.000000D+00  0.122652D+00
     26  0.000000D+00  0.529309D-02  0.959596D-02  0.000000D+00  0.111366D+00
     27  0.000000D+00 -0.178798D-01 -0.309834D-01  0.000000D+00  0.477165D-01
     28  0.000000D+00  0.347504D-02 -0.528790D-02  0.000000D+00  0.169984D-01
     29  0.000000D+00 -0.529309D-02  0.959596D-02  0.000000D+00  0.146014D-01
     30  0.000000D+00 -0.178798D-01  0.309834D-01  0.000000D+00  0.117266D-01
               26            27            28            29            30 
     26  0.253794D+00
     27  0.764083D-01  0.946420D-01
     28 -0.146014D-01  0.117266D-01  0.122652D+00
     29 -0.126474D-01  0.103303D-01 -0.111366D+00  0.253794D+00
     30 -0.103303D-01  0.871999D-02  0.477165D-01 -0.764083D-01  0.946420D-01
 Force constants in internal coordinates: 
                1             2             3             4             5 
      1  0.456205D+00
      2  0.000000D+00  0.382450D+00
      3  0.000000D+00  0.000000D+00  0.382450D+00
      4  0.000000D+00  0.000000D+00  0.000000D+00  0.349285D+00
      5  0.000000D+00  0.000000D+00  0.000000D+00  0.000000D+00  0.349285D+00
      6  0.000000D+00  0.000000D+00  0.000000D+00  0.000000D+00  0.000000D+00
      7  0.000000D+00  0.000000D+00  0.000000D+00  0.000000D+00  0.000000D+00
      8  0.000000D+00  0.000000D+00  0.000000D+00  0.000000D+00  0.000000D+00
      9  0.000000D+00  0.000000D+00  0.000000D+00  0.000000D+00  0.000000D+00
     10  0.000000D+00  0.000000D+00  0.000000D+00  0.000000D+00  0.000000D+00
     11  0.000000D+00  0.000000D+00  0.000000D+00  0.000000D+00  0.000000D+00
     12  0.000000D+00  0.000000D+00  0.000000D+00  0.000000D+00  0.000000D+00
     13  0.000000D+00  0.000000D+00  0.000000D+00  0.000000D+00  0.000000D+00
     14  0.000000D+00  0.000000D+00  0.000000D+00  0.000000D+00  0.000000D+00
     15  0.000000D+00  0.000000D+00  0.000000D+00  0.000000D+00  0.000000D+00
     16  0.000000D+00  0.000000D+00  0.000000D+00  0.000000D+00  0.000000D+00
     17  0.000000D+00  0.000000D+00  0.000000D+00  0.000000D+00  0.000000D+00
     18  0.000000D+00  0.000000D+00  0.000000D+00  0.000000D+00  0.000000D+00
     19  0.000000D+00  0.000000D+00  0.000000D+00  0.000000D+00  0.000000D+00
     20  0.000000D+00  0.000000D+00  0.000000D+00  0.000000D+00  0.000000D+00
     21  0.000000D+00  0.000000D+00  0.000000D+00  0.000000D+00  0.000000D+00
     22  0.000000D+00  0.000000D+00  0.000000D+00  0.000000D+00  0.000000D+00
     23  0.000000D+00  0.000000D+00  0.000000D+00  0.000000D+00  0.000000D+00
     24  0.000000D+00  0.000000D+00  0.000000D+00  0.000000D+00  0.000000D+00
                6             7             8             9            10 
      6  0.349285D+00
      7  0.000000D+00  0.349285D+00
      8  0.000000D+00  0.000000D+00  0.349285D+00
      9  0.000000D+00  0.000000D+00  0.000000D+00  0.349285D+00
     10  0.000000D+00  0.000000D+00  0.000000D+00  0.000000D+00  0.352965D+00
     11  0.000000D+00  0.000000D+00  0.000000D+00  0.000000D+00  0.869047D-01
     12  0.000000D+00  0.000000D+00  0.000000D+00  0.000000D+00  0.000000D+00
     13  0.000000D+00  0.000000D+00  0.000000D+00  0.000000D+00  0.000000D+00
     14  0.000000D+00  0.000000D+00  0.000000D+00  0.000000D+00  0.000000D+00
     15  0.000000D+00  0.000000D+00  0.000000D+00  0.000000D+00  0.199973D-04
     16  0.000000D+00  0.000000D+00  0.000000D+00  0.000000D+00 -0.999864D-05
     17  0.000000D+00  0.000000D+00  0.000000D+00  0.000000D+00 -0.999864D-05
     18  0.000000D+00  0.000000D+00  0.000000D+00  0.000000D+00 -0.753294D-01
     19  0.000000D+00  0.000000D+00  0.000000D+00  0.000000D+00  0.393332D-01
     20  0.000000D+00  0.000000D+00  0.000000D+00  0.000000D+00  0.131111D-01
     21  0.000000D+00  0.000000D+00  0.000000D+00  0.000000D+00  0.131111D-01
     22  0.000000D+00  0.000000D+00  0.000000D+00  0.000000D+00 -0.131111D-01
     23  0.000000D+00  0.000000D+00  0.000000D+00  0.000000D+00 -0.431387D-02
     24  0.000000D+00  0.000000D+00  0.000000D+00  0.000000D+00 -0.442683D-02
               11            12            13            14            15 
     11  0.352965D+00
     12  0.199973D-04  0.241737D+00
     13 -0.999864D-05  0.414882D-01  0.241737D+00
     14 -0.999864D-05  0.414882D-01  0.414882D-01  0.241737D+00
     15  0.000000D+00  0.000000D+00  0.000000D+00  0.000000D+00  0.241737D+00
     16  0.000000D+00  0.000000D+00  0.000000D+00  0.000000D+00  0.414882D-01
     17  0.000000D+00  0.000000D+00  0.000000D+00  0.000000D+00  0.414882D-01
     18 -0.753294D-01  0.000000D+00 -0.163277D-04  0.163277D-04  0.000000D+00
     19  0.131111D-01  0.000000D+00  0.000000D+00  0.000000D+00  0.000000D+00
     20  0.442683D-02 -0.648518D-01  0.000000D+00  0.648518D-01  0.000000D+00
     21  0.431387D-02  0.648518D-01 -0.648518D-01  0.000000D+00  0.000000D+00
     22 -0.393332D-01  0.000000D+00  0.000000D+00  0.000000D+00  0.000000D+00
     23 -0.131111D-01  0.000000D+00  0.000000D+00  0.000000D+00 -0.648518D-01
     24 -0.131111D-01  0.000000D+00  0.000000D+00  0.000000D+00  0.648518D-01
               16            17            18            19            20 
     16  0.241737D+00
     17  0.414882D-01  0.241737D+00
     18  0.000000D+00  0.000000D+00  0.188898D+00
     19  0.000000D+00  0.000000D+00  0.214103D-01  0.856411D-01
     20  0.000000D+00  0.000000D+00  0.710601D-02  0.285470D-01  0.243643D+00
     21  0.000000D+00  0.000000D+00  0.710601D-02  0.285470D-01 -0.107548D+00
     22  0.000000D+00  0.000000D+00 -0.214103D-01  0.000000D+00  0.000000D+00
     23  0.000000D+00  0.648518D-01 -0.713676D-02  0.000000D+00  0.000000D+00
     24 -0.648518D-01  0.000000D+00 -0.713676D-02  0.000000D+00  0.000000D+00
               21            22            23            24 
     21  0.243643D+00
     22  0.000000D+00  0.856411D-01
     23  0.000000D+00  0.285470D-01  0.243643D+00
     24  0.000000D+00  0.285470D-01 -0.107548D+00  0.243643D+00
 Leave Link  716 at Mon May 13 15:46:25 2024, MaxMem=  4294967296 cpu:         0.3
 (Enter /g100_work/pMI24_ChiCa/g09d1/g09d01/d01/build-node-6-2-59348/src/main/l103.exe)

 GradGradGradGradGradGradGradGradGradGradGradGradGradGradGradGradGradGrad
 Berny optimization.
 Search for a local minimum.
 Step number   1 out of a maximum of   34
 All quantities printed in internal units (Hartrees-Bohrs-Radians)
 Second derivative matrix not updated -- first step.
 ITU=  0
     Eigenvalues ---    0.04654   0.05383   0.09454   0.11996   0.14039
     Eigenvalues ---    0.14039   0.17883   0.24009   0.24645   0.27416
     Eigenvalues ---    0.32471   0.32471   0.34928   0.34928   0.34928
     Eigenvalues ---    0.34928   0.34928   0.34928   0.38245   0.38245
     Eigenvalues ---    0.41105   0.41105   0.45621   0.48439
 RFO step:  Lambda=-1.06158972D-01 EMin= 4.65357975D-02
 Linear search not attempted -- first point.
 Maximum step size (   0.300) exceeded in Quadratic search.
    -- Step size scaled by   0.491
 Variable       Old X    -DE/DX   Delta X   Delta X   Delta X     New X
                                 (Linear)    (Quad)   (Total)
   oc2        2.64562  -0.11868   0.00000  -0.10363  -0.10363   2.54199
   cc3        2.74010   0.05487   0.00000   0.05515   0.05515   2.79525
   cco3       1.91063   0.04256   0.00000   0.07578   0.07578   1.98641
   cc4        2.74010   0.05489   0.00000   0.05517   0.05517   2.79527
   cco4       1.91063   0.04261   0.00000   0.07583   0.07583   1.98646
   dih4       2.09440   0.10900   0.00000   0.22904   0.22904   2.32343
   hc5        2.05791   0.00572   0.00000   0.00616   0.00616   2.06407
   hcc5       1.91063   0.01703   0.00000   0.02510   0.02510   1.93573
   dih5       3.14159  -0.00383   0.00000  -0.05157  -0.05157   3.09002
   hc6        2.05791   0.00072   0.00000   0.00078   0.00078   2.05869
   hcc6       1.91063  -0.00454   0.00000  -0.01586  -0.01586   1.89477
   dih6       2.09440  -0.00013   0.00000  -0.01021  -0.01021   2.08419
   hc7        2.05791   0.00430   0.00000   0.00463   0.00463   2.06254
   hcc7       1.91063   0.01550   0.00000   0.02267   0.02267   1.93330
   dih7       4.18879  -0.00378   0.00000  -0.02026  -0.02026   4.16853
   hc8        2.05791   0.00570   0.00000   0.00615   0.00615   2.06406
   hcc8       1.91063   0.01698   0.00000   0.02504   0.02504   1.93567
   dih8       3.14159   0.00373   0.00000   0.05132   0.05132   3.19291
   hc9        2.05791   0.00429   0.00000   0.00463   0.00463   2.06254
   hcc9       1.91063   0.01548   0.00000   0.02263   0.02263   1.93327
   dih9       2.09440   0.00379   0.00000   0.02027   0.02027   2.11467
   hc10       2.05791   0.00072   0.00000   0.00077   0.00077   2.05869
  hcc10       1.91063  -0.00451   0.00000  -0.01582  -0.01582   1.89481
  dih10       4.18879   0.00004   0.00000   0.01013   0.01013   4.19892
         Item               Value     Threshold  Converged?
 Maximum Force            0.118681     0.000450     NO 
 RMS     Force            0.039199     0.000300     NO 
 Maximum Displacement     0.229035     0.001800     NO 
 RMS     Displacement     0.061237     0.001200     NO 
 Predicted change in Energy=-4.410631D-02
 Lowest energy point so far.  Saving SCF results.
 GradGradGradGradGradGradGradGradGradGradGradGradGradGradGradGradGradGrad

 Leave Link  103 at Mon May 13 15:46:25 2024, MaxMem=  4294967296 cpu:         0.4
 (Enter /g100_work/pMI24_ChiCa/g09d1/g09d01/d01/build-node-6-2-59348/src/main/l202.exe)
 ---------------------------------------------------------------------------------------------------
                            Z-MATRIX (ANGSTROMS AND DEGREES)
   CD    Cent   Atom    N1       Length/X        N2       Alpha/Y        N3        Beta/Z          J
 ---------------------------------------------------------------------------------------------------
      1      1  C 
      2      2  O        1   1.345163(     1)
      3      3  C        1   1.479182(     2)      2  113.813(    10)
      4      4  C        1   1.479192(     3)      2  113.816(    11)      3  133.123(    18)      0
      5      5  H        4   1.092261(     4)      1  110.909(    12)      2  177.045(    19)      0
      6      6  H        4   1.089410(     5)      1  108.562(    13)      5  119.415(    20)      0
      7      7  H        4   1.091451(     6)      1  110.770(    14)      5  238.839(    21)      0
      8      8  H        3   1.092252(     7)      1  110.906(    15)      2  182.940(    22)      0
      9      9  H        3   1.091448(     8)      1  110.768(    16)      8  121.162(    23)      0
     10     10  H        3   1.089409(     9)      1  108.565(    17)      8  240.580(    24)      0
 ---------------------------------------------------------------------------------------------------
                         Z-Matrix orientation:                         
 ---------------------------------------------------------------------
 Center     Atomic      Atomic             Coordinates (Angstroms)
 Number     Number       Type             X           Y           Z
 ---------------------------------------------------------------------
      1          6           0        0.000000    0.000000    0.000000
      2          8           0        0.000000    0.000000    1.345163
      3          6           0        1.353255    0.000000   -0.597228
      4          6           0       -0.925022   -0.987713   -0.597300
      5          1           0       -0.925926   -0.911729   -1.686915
      6          1           0       -0.594090   -1.986899   -0.316361
      7          1           0       -1.941736   -0.837318   -0.229958
      8          1           0        1.298397    0.052340   -1.686845
      9          1           0        1.938339    0.845040   -0.230019
     10          1           0        1.856483   -0.924385   -0.316004
 ---------------------------------------------------------------------
                    Distance matrix (angstroms):
                    1          2          3          4          5
     1  C    0.000000
     2  O    1.345163   0.000000
     3  C    1.479182   2.367315   0.000000
     4  C    1.479192   2.367363   2.483168   0.000000
     5  H    2.129383   3.298801   2.685765   1.092261   0.000000
     6  H    2.097807   2.657324   2.796213   1.089410   1.773280
     7  H    2.127045   2.636749   3.419496   1.091451   1.777676
     8  H    2.129324   3.298735   1.092252   2.685593   2.424262
     9  H    2.127007   2.636750   1.091448   3.419461   3.662350
    10  H    2.097826   2.657159   1.089409   2.796410   3.101832
                    6          7          8          9         10
     6  H    0.000000
     7  H    1.773457   0.000000
     8  H    3.101328   3.662305   0.000000
     9  H    3.800070   4.229103   1.777707   0.000000
    10  H    2.671001   3.800191   1.773318   1.773403   0.000000
 Symmetry turned off by external request.
 Stoichiometry    C3H6O
 Framework group  C1[X(C3H6O)]
 Deg. of freedom    24
 Full point group                 C1      NOp   1
 Rotational constants (GHZ):      9.9320302      8.8860265      5.0975199
 Leave Link  202 at Mon May 13 15:46:25 2024, MaxMem=  4294967296 cpu:         0.4
 (Enter /g100_work/pMI24_ChiCa/g09d1/g09d01/d01/build-node-6-2-59348/src/main/l301.exe)
 Standard basis: 6-31+G(d,p) (6D, 7F)
 Ernie: Thresh=  0.10000D-02 Tol=  0.10000D-05 Strict=F.
   106 basis functions,   170 primitive gaussians,   106 cartesian basis functions
    16 alpha electrons       16 beta electrons
       nuclear repulsion energy       118.9227877135 Hartrees.
 IExCor=  402 DFT=T Ex+Corr=B3LYP ExCW=0 ScaHFX=  0.200000
 ScaDFX=  0.800000  0.720000  1.000000  0.810000 ScalE2=  1.000000  1.000000
 IRadAn=      0 IRanWt=     -1 IRanGd=            0 ICorTp=0 IEmpDi=  4
 NAtoms=   10 NActive=   10 NUniq=   10 SFac= 1.00D+00 NAtFMM=   60 NAOKFM=F Big=F
 Integral buffers will be    131072 words long.
 Raffenetti 2 integral format.
 Two-electron integral symmetry is turned off.
 Leave Link  301 at Mon May 13 15:46:25 2024, MaxMem=  4294967296 cpu:         0.2
 (Enter /g100_work/pMI24_ChiCa/g09d1/g09d01/d01/build-node-6-2-59348/src/main/l302.exe)
 NPDir=0 NMtPBC=     1 NCelOv=     1 NCel=       1 NClECP=     1 NCelD=      1
         NCelK=      1 NCelE2=     1 NClLst=     1 CellRange=     0.0.
 One-electron integrals computed using PRISM.
 NBasis=   106 RedAO= T EigKep=  1.52D-04  NBF=   106
 NBsUse=   106 1.00D-06 EigRej= -1.00D+00 NBFU=   106
 Precomputing XC quadrature grid using
 IXCGrd= 4 IRadAn=           0 IRanWt=          -1 IRanGd=           0 AccXCQ= 0.00D+00.
 Generated NRdTot=       0 NPtTot=           0 NUsed=           0 NTot=          32
 NSgBfM=   106   106   106   106   106 MxSgAt=    10 MxSgA2=    10.
 Leave Link  302 at Mon May 13 15:46:25 2024, MaxMem=  4294967296 cpu:         1.9
 (Enter /g100_work/pMI24_ChiCa/g09d1/g09d01/d01/build-node-6-2-59348/src/main/l303.exe)
 DipDrv:  MaxL=1.
 Leave Link  303 at Mon May 13 15:46:26 2024, MaxMem=  4294967296 cpu:         0.2
 (Enter /g100_work/pMI24_ChiCa/g09d1/g09d01/d01/build-node-6-2-59348/src/main/l401.exe)
 Initial guess from the checkpoint file:  "tmp.chk"
 B after Tr=    -0.067398    0.155472   -0.092281
         Rot=    0.997544   -0.036132   -0.018180    0.057176 Ang=  -8.03 deg.
 Guess basis will be translated and rotated to current coordinates.
 JPrj=2 DoOrth=T DoCkMO=T.
 Generating alternative initial guess.
 ExpMin= 4.38D-02 ExpMax= 5.48D+03 ExpMxC= 8.25D+02 IAcc=2 IRadAn=         4 AccDes= 0.00D+00
 Harris functional with IExCor=  402 and IRadAn=       4 diagonalized for initial guess.
 HarFok:  IExCor=  402 AccDes= 0.00D+00 IRadAn=         4 IDoV= 1 UseB2=F ITyADJ=14
 ICtDFT=  3500011 ScaDFX=  1.000000  1.000000  1.000000  1.000000
 FoFCou: FMM=F IPFlag=           0 FMFlag=      100000 FMFlg1=           0
         NFxFlg=           0 DoJE=T BraDBF=F KetDBF=T FulRan=T
         wScrn=  0.000000 ICntrl=     500 IOpCl=  0 I1Cent=   200000004 NGrid=           0
         NMat0=    1 NMatS0=      1 NMatT0=    0 NMatD0=    1 NMtDS0=    0 NMtDT0=    0
 Symmetry not used in FoFCou.
 Harris En= -193.174869060431    
 Leave Link  401 at Mon May 13 15:46:26 2024, MaxMem=  4294967296 cpu:         2.8
 (Enter /g100_work/pMI24_ChiCa/g09d1/g09d01/d01/build-node-6-2-59348/src/main/l502.exe)
 Closed shell SCF:
 Using DIIS extrapolation, IDIIS=  1040.
 Two-electron integral symmetry not used.
 Keep R1 ints in memory in canonical form, NReq=17066584.
 IVT=       56306 IEndB=       56306 NGot=  4294967296 MDV=  4278828035
 LenX=  4278828035 LenY=  4278816358
 Requested convergence on RMS density matrix=1.00D-08 within 128 cycles.
 Requested convergence on MAX density matrix=1.00D-06.
 Requested convergence on             energy=1.00D-06.
 No special actions if energy rises.
 FoFCou: FMM=F IPFlag=           0 FMFlag=           0 FMFlg1=           0
         NFxFlg=           0 DoJE=F BraDBF=F KetDBF=F FulRan=T
         wScrn=  0.000000 ICntrl=     600 IOpCl=  0 I1Cent=           0 NGrid=           0
         NMat0=    1 NMatS0=   5671 NMatT0=    0 NMatD0=    1 NMtDS0=    0 NMtDT0=    0
 Symmetry not used in FoFCou.

 Cycle   1  Pass 1  IDiag  1:
 E= -193.114106399545    
 DIIS: error= 5.56D-03 at cycle   1 NSaved=   1.
 NSaved= 1 IEnMin= 1 EnMin= -193.114106399545     IErMin= 1 ErrMin= 5.56D-03
 ErrMax= 5.56D-03  0.00D+00 EMaxC= 1.00D-01 BMatC= 6.52D-03 BMatP= 6.52D-03
 IDIUse=3 WtCom= 9.44D-01 WtEn= 5.56D-02
 Coeff-Com:  0.100D+01
 Coeff-En:   0.100D+01
 Coeff:      0.100D+01
 Gap=     0.630 Goal=   None    Shift=    0.000
 GapD=    0.630 DampG=2.000 DampE=1.000 DampFc=2.0000 IDamp=-1.
 RMSDP=1.94D-03 MaxDP=5.73D-02              OVMax= 5.36D-02

 Cycle   2  Pass 1  IDiag  1:
 E= -193.124459229608     Delta-E=       -0.010352830063 Rises=F Damp=F
 DIIS: error= 4.80D-03 at cycle   2 NSaved=   2.
 NSaved= 2 IEnMin= 2 EnMin= -193.124459229608     IErMin= 2 ErrMin= 4.80D-03
 ErrMax= 4.80D-03  0.00D+00 EMaxC= 1.00D-01 BMatC= 1.93D-03 BMatP= 6.52D-03
 IDIUse=3 WtCom= 9.52D-01 WtEn= 4.80D-02
 Coeff-Com:  0.237D+00 0.763D+00
 Coeff-En:   0.000D+00 0.100D+01
 Coeff:      0.226D+00 0.774D+00
 Gap=     0.155 Goal=   None    Shift=    0.000
 RMSDP=9.73D-04 MaxDP=2.86D-02 DE=-1.04D-02 OVMax= 5.23D-02

 Cycle   3  Pass 1  IDiag  1:
 E= -193.120403550034     Delta-E=        0.004055679574 Rises=F Damp=F
 DIIS: error= 9.41D-03 at cycle   3 NSaved=   3.
 NSaved= 3 IEnMin= 2 EnMin= -193.124459229608     IErMin= 2 ErrMin= 4.80D-03
 ErrMax= 9.41D-03  0.00D+00 EMaxC= 1.00D-01 BMatC= 6.89D-03 BMatP= 1.93D-03
 IDIUse=3 WtCom= 9.35D-02 WtEn= 9.07D-01
 Coeff-Com: -0.296D-01 0.674D+00 0.355D+00
 Coeff-En:   0.000D+00 0.720D+00 0.280D+00
 Coeff:     -0.277D-02 0.716D+00 0.287D+00
 Gap=     0.164 Goal=   None    Shift=    0.000
 RMSDP=5.45D-04 MaxDP=1.61D-02 DE= 4.06D-03 OVMax= 3.17D-02

 Cycle   4  Pass 1  IDiag  1:
 E= -193.125804370063     Delta-E=       -0.005400820029 Rises=F Damp=F
 DIIS: error= 1.92D-03 at cycle   4 NSaved=   4.
 NSaved= 4 IEnMin= 4 EnMin= -193.125804370063     IErMin= 4 ErrMin= 1.92D-03
 ErrMax= 1.92D-03  0.00D+00 EMaxC= 1.00D-01 BMatC= 2.41D-04 BMatP= 1.93D-03
 IDIUse=3 WtCom= 9.81D-01 WtEn= 1.92D-02
 Coeff-Com: -0.250D-01 0.277D+00 0.142D-01 0.733D+00
 Coeff-En:   0.000D+00 0.140D+00 0.000D+00 0.860D+00
 Coeff:     -0.246D-01 0.275D+00 0.139D-01 0.736D+00
 Gap=     0.166 Goal=   None    Shift=    0.000
 RMSDP=1.34D-04 MaxDP=4.13D-03 DE=-5.40D-03 OVMax= 7.13D-03

 Cycle   5  Pass 1  IDiag  1:
 E= -193.125994034900     Delta-E=       -0.000189664837 Rises=F Damp=F
 DIIS: error= 1.30D-04 at cycle   5 NSaved=   5.
 NSaved= 5 IEnMin= 5 EnMin= -193.125994034900     IErMin= 5 ErrMin= 1.30D-04
 ErrMax= 1.30D-04  0.00D+00 EMaxC= 1.00D-01 BMatC= 2.50D-06 BMatP= 2.41D-04
 IDIUse=3 WtCom= 9.99D-01 WtEn= 1.30D-03
 Coeff-Com: -0.775D-02 0.747D-01-0.109D-01 0.311D+00 0.633D+00
 Coeff-En:   0.000D+00 0.000D+00 0.000D+00 0.000D+00 0.100D+01
 Coeff:     -0.774D-02 0.746D-01-0.109D-01 0.310D+00 0.634D+00
 Gap=     0.166 Goal=   None    Shift=    0.000
 RMSDP=2.62D-05 MaxDP=3.46D-04 DE=-1.90D-04 OVMax= 4.57D-04

 Cycle   6  Pass 1  IDiag  1:
 E= -193.125996529490     Delta-E=       -0.000002494590 Rises=F Damp=F
 DIIS: error= 1.78D-05 at cycle   6 NSaved=   6.
 NSaved= 6 IEnMin= 6 EnMin= -193.125996529490     IErMin= 6 ErrMin= 1.78D-05
 ErrMax= 1.78D-05  0.00D+00 EMaxC= 1.00D-01 BMatC= 8.02D-08 BMatP= 2.50D-06
 IDIUse=1 WtCom= 1.00D+00 WtEn= 0.00D+00
 Coeff-Com:  0.118D-03-0.675D-02-0.462D-02 0.190D-01 0.177D+00 0.815D+00
 Coeff:      0.118D-03-0.675D-02-0.462D-02 0.190D-01 0.177D+00 0.815D+00
 Gap=     0.166 Goal=   None    Shift=    0.000
 RMSDP=8.34D-06 MaxDP=2.13D-04 DE=-2.49D-06 OVMax= 9.40D-05

 Cycle   7  Pass 1  IDiag  1:
 E= -193.125996609262     Delta-E=       -0.000000079772 Rises=F Damp=F
 DIIS: error= 5.26D-06 at cycle   7 NSaved=   7.
 NSaved= 7 IEnMin= 7 EnMin= -193.125996609262     IErMin= 7 ErrMin= 5.26D-06
 ErrMax= 5.26D-06  0.00D+00 EMaxC= 1.00D-01 BMatC= 4.45D-09 BMatP= 8.02D-08
 IDIUse=1 WtCom= 1.00D+00 WtEn= 0.00D+00
 Coeff-Com:  0.395D-03-0.555D-02-0.661D-03-0.809D-02 0.328D-01 0.248D+00
 Coeff-Com:  0.733D+00
 Coeff:      0.395D-03-0.555D-02-0.661D-03-0.809D-02 0.328D-01 0.248D+00
 Coeff:      0.733D+00
 Gap=     0.166 Goal=   None    Shift=    0.000
 RMSDP=1.40D-06 MaxDP=2.76D-05 DE=-7.98D-08 OVMax= 2.60D-05

 Cycle   8  Pass 1  IDiag  1:
 E= -193.125996614130     Delta-E=       -0.000000004868 Rises=F Damp=F
 DIIS: error= 1.62D-06 at cycle   8 NSaved=   8.
 NSaved= 8 IEnMin= 8 EnMin= -193.125996614130     IErMin= 8 ErrMin= 1.62D-06
 ErrMax= 1.62D-06  0.00D+00 EMaxC= 1.00D-01 BMatC= 3.51D-10 BMatP= 4.45D-09
 IDIUse=1 WtCom= 1.00D+00 WtEn= 0.00D+00
 Coeff-Com:  0.716D-04-0.824D-03 0.229D-03-0.269D-02-0.113D-02 0.777D-02
 Coeff-Com:  0.179D+00 0.817D+00
 Coeff:      0.716D-04-0.824D-03 0.229D-03-0.269D-02-0.113D-02 0.777D-02
 Coeff:      0.179D+00 0.817D+00
 Gap=     0.166 Goal=   None    Shift=    0.000
 RMSDP=2.51D-07 MaxDP=5.11D-06 DE=-4.87D-09 OVMax= 9.07D-06

 Cycle   9  Pass 1  IDiag  1:
 E= -193.125996614427     Delta-E=       -0.000000000297 Rises=F Damp=F
 DIIS: error= 6.87D-07 at cycle   9 NSaved=   9.
 NSaved= 9 IEnMin= 9 EnMin= -193.125996614427     IErMin= 9 ErrMin= 6.87D-07
 ErrMax= 6.87D-07  0.00D+00 EMaxC= 1.00D-01 BMatC= 7.18D-11 BMatP= 3.51D-10
 IDIUse=1 WtCom= 1.00D+00 WtEn= 0.00D+00
 Coeff-Com: -0.793D-05 0.216D-03 0.205D-03-0.409D-03-0.435D-02-0.258D-01
 Coeff-Com: -0.420D-04 0.398D+00 0.632D+00
 Coeff:     -0.793D-05 0.216D-03 0.205D-03-0.409D-03-0.435D-02-0.258D-01
 Coeff:     -0.420D-04 0.398D+00 0.632D+00
 Gap=     0.166 Goal=   None    Shift=    0.000
 RMSDP=1.58D-07 MaxDP=3.38D-06 DE=-2.97D-10 OVMax= 3.24D-06

 Cycle  10  Pass 1  IDiag  1:
 E= -193.125996614510     Delta-E=       -0.000000000083 Rises=F Damp=F
 DIIS: error= 4.81D-08 at cycle  10 NSaved=  10.
 NSaved=10 IEnMin=10 EnMin= -193.125996614510     IErMin=10 ErrMin= 4.81D-08
 ErrMax= 4.81D-08  0.00D+00 EMaxC= 1.00D-01 BMatC= 2.61D-13 BMatP= 7.18D-11
 IDIUse=1 WtCom= 1.00D+00 WtEn= 0.00D+00
 Coeff-Com: -0.282D-05 0.485D-04 0.172D-04 0.165D-04-0.647D-03-0.413D-02
 Coeff-Com: -0.670D-02 0.257D-01 0.807D-01 0.905D+00
 Coeff:     -0.282D-05 0.485D-04 0.172D-04 0.165D-04-0.647D-03-0.413D-02
 Coeff:     -0.670D-02 0.257D-01 0.807D-01 0.905D+00
 Gap=     0.166 Goal=   None    Shift=    0.000
 RMSDP=1.69D-08 MaxDP=3.22D-07 DE=-8.25D-11 OVMax= 4.06D-07

 Cycle  11  Pass 1  IDiag  1:
 E= -193.125996614509     Delta-E=        0.000000000001 Rises=F Damp=F
 DIIS: error= 2.92D-08 at cycle  11 NSaved=  11.
 NSaved=11 IEnMin=10 EnMin= -193.125996614510     IErMin=11 ErrMin= 2.92D-08
 ErrMax= 2.92D-08  0.00D+00 EMaxC= 1.00D-01 BMatC= 6.10D-14 BMatP= 2.61D-13
 IDIUse=1 WtCom= 1.00D+00 WtEn= 0.00D+00
 Coeff-Com: -0.388D-06 0.474D-05-0.560D-05 0.278D-04 0.438D-04 0.794D-04
 Coeff-Com: -0.113D-02-0.632D-02-0.814D-03 0.193D+00 0.815D+00
 Coeff:     -0.388D-06 0.474D-05-0.560D-05 0.278D-04 0.438D-04 0.794D-04
 Coeff:     -0.113D-02-0.632D-02-0.814D-03 0.193D+00 0.815D+00
 Gap=     0.166 Goal=   None    Shift=    0.000
 RMSDP=4.32D-09 MaxDP=9.01D-08 DE= 9.09D-13 OVMax= 1.00D-07

 SCF Done:  E(RB3LYP) =  -193.125996615     A.U. after   11 cycles
            NFock= 11  Conv=0.43D-08     -V/T= 2.0103
 KE= 1.911624205716D+02 PE=-6.874037157951D+02 EE= 1.841925108955D+02
 Leave Link  502 at Mon May 13 15:46:27 2024, MaxMem=  4294967296 cpu:        15.2
 (Enter /g100_work/pMI24_ChiCa/g09d1/g09d01/d01/build-node-6-2-59348/src/main/l701.exe)
 Compute integral first derivatives.
 ... and contract with generalized density number  0.
 Leave Link  701 at Mon May 13 15:46:27 2024, MaxMem=  4294967296 cpu:         2.2
 (Enter /g100_work/pMI24_ChiCa/g09d1/g09d01/d01/build-node-6-2-59348/src/main/l702.exe)
 L702 exits ... SP integral derivatives will be done elsewhere.
 Leave Link  702 at Mon May 13 15:46:27 2024, MaxMem=  4294967296 cpu:         0.2
 (Enter /g100_work/pMI24_ChiCa/g09d1/g09d01/d01/build-node-6-2-59348/src/main/l703.exe)
 Compute integral first derivatives, UseDBF=F ICtDFT=           0.
 Integral derivatives from FoFJK, PRISM(SPDF).
 Calling FoFJK, ICntrl=      2127 FMM=F ISym2X=0 I1Cent= 0 IOpClX= 0 NMat=1 NMatS=1 NMatT=0.
 FoFJK:  IHMeth= 1 ICntrl=    2127 DoSepK=F KAlg= 0 I1Cent=   0 FoldK=F
 IRaf=         0 NMat=   1 IRICut=       1 DoRegI=T DoRafI=F ISym2E= 0.
 FoFCou: FMM=F IPFlag=           0 FMFlag=      100000 FMFlg1=         800
         NFxFlg=           0 DoJE=F BraDBF=F KetDBF=F FulRan=T
         wScrn=  0.000000 ICntrl=    2127 IOpCl=  0 I1Cent=           0 NGrid=           0
         NMat0=    1 NMatS0=      1 NMatT0=    0 NMatD0=    1 NMtDS0=    0 NMtDT0=    0
 Symmetry not used in FoFCou.
 Leave Link  703 at Mon May 13 15:46:27 2024, MaxMem=  4294967296 cpu:         7.4
 (Enter /g100_work/pMI24_ChiCa/g09d1/g09d01/d01/build-node-6-2-59348/src/main/l716.exe)
 Dipole        = 1.44368990D-01-3.32942165D-01-1.28955258D+00
 -------------------------------------------------------------------
 Center     Atomic                   Forces (Hartrees/Bohr)
 Number     Number              X              Y              Z
 -------------------------------------------------------------------
      1        6           0.031104933   -0.071774012    0.150409656
      2        8          -0.013369332    0.030804847   -0.106411520
      3        6           0.010800643    0.035671587   -0.022041996
      4        6          -0.033382614    0.016485843   -0.022035161
      5        1          -0.002824639   -0.003143173   -0.002842964
      6        1           0.002884542   -0.000971949    0.002169944
      7        1          -0.002035372   -0.003370745    0.000713569
      8        1           0.004216968   -0.000095244   -0.002837080
      9        1           0.003856645   -0.000826722    0.000726206
     10        1          -0.001251774   -0.002780430    0.002149346
 -------------------------------------------------------------------
 Cartesian Forces:  Max     0.150409656 RMS     0.038752052
 -----------------------------------------------------------------------------------------------
                       Internal Coordinate Forces (Hartree/Bohr or radian)
  Cent   Atom   N1       Length/X         N2         Alpha/Y        N3         Beta/Z          J
 -----------------------------------------------------------------------------------------------
      1  C 
      2  O        1  -0.106412(     1)
      3  C        1   0.025006(     2)      2   0.026567(    10)
      4  C        1   0.024983(     3)      2   0.026536(    11)      3   0.069424(    18)     0
      5  H        4   0.002620(     4)      1   0.009011(    12)      2  -0.003985(    19)     0
      6  H        4   0.002327(     5)      1  -0.006020(    13)      5   0.000169(    20)     0
      7  H        4   0.001672(     6)      1   0.005829(    14)      5  -0.004411(    21)     0
      8  H        3   0.002614(     7)      1   0.008994(    15)      2   0.004037(    22)     0
      9  H        3   0.001672(     8)      1   0.005829(    16)      8   0.004441(    23)     0
     10  H        3   0.002336(     9)      1  -0.005987(    17)      8  -0.000133(    24)     0
 -----------------------------------------------------------------------------------------------
 Internal  Forces:  Max     0.106411520 RMS     0.028288906
 Leave Link  716 at Mon May 13 15:46:27 2024, MaxMem=  4294967296 cpu:         0.2
 (Enter /g100_work/pMI24_ChiCa/g09d1/g09d01/d01/build-node-6-2-59348/src/main/l103.exe)

 GradGradGradGradGradGradGradGradGradGradGradGradGradGradGradGradGradGrad
 Berny optimization.
 Search for a local minimum.
 Step number   2 out of a maximum of   34
 All quantities printed in internal units (Hartrees-Bohrs-Radians)
 Update second derivatives using D2CorN and points    1    2
 DE= -4.34D-02 DEPred=-4.41D-02 R= 9.83D-01
 TightC=F SS=  1.41D+00  RLast= 3.00D-01 DXNew= 5.0454D-01 9.0000D-01
 Trust test= 9.83D-01 RLast= 3.00D-01 DXMaxT set to 5.05D-01
 ITU=  1  0
 Linear search step of   0.600 exceeds DXMaxT=   0.505 but not scaled.
 Quartic linear search produced a step of  2.00000.
 Variable       Old X    -DE/DX   Delta X   Delta X   Delta X     New X
                                 (Linear)    (Quad)   (Total)
   oc2        2.54199  -0.10641  -0.20725   0.00000  -0.20725   2.33474
   cc3        2.79525   0.02501   0.11029   0.00000   0.11029   2.90554
   cco3       1.98641   0.02657   0.15156   0.00000   0.15156   2.13798
   cc4        2.79527   0.02498   0.11033   0.00000   0.11033   2.90560
   cco4       1.98646   0.02654   0.15166   0.00000   0.15166   2.13813
   dih4       2.32343   0.06942   0.45807   0.00000   0.45807   2.78150
   hc5        2.06407   0.00262   0.01233   0.00000   0.01233   2.07640
   hcc5       1.93573   0.00901   0.05020   0.00000   0.05020   1.98593
   dih5       3.09002  -0.00399  -0.10315   0.00000  -0.10315   2.98687
   hc6        2.05869   0.00233   0.00155   0.00000   0.00155   2.06024
   hcc6       1.89477  -0.00602  -0.03172   0.00000  -0.03172   1.86305
   dih6       2.08419   0.00017  -0.02041   0.00000  -0.02041   2.06378
   hc7        2.06254   0.00167   0.00927   0.00000   0.00927   2.07181
   hcc7       1.93330   0.00583   0.04534   0.00000   0.04534   1.97864
   dih7       4.16853  -0.00441  -0.04052   0.00000  -0.04052   4.12802
   hc8        2.06406   0.00261   0.01229   0.00000   0.01229   2.07635
   hcc8       1.93567   0.00899   0.05008   0.00000   0.05008   1.98575
   dih8       3.19291   0.00404   0.10264   0.00000   0.10264   3.29555
   hc9        2.06254   0.00167   0.00925   0.00000   0.00925   2.07179
   hcc9       1.93327   0.00583   0.04527   0.00000   0.04527   1.97853
   dih9       2.11467   0.00444   0.04055   0.00000   0.04055   2.15522
   hc10       2.05869   0.00234   0.00155   0.00000   0.00155   2.06023
  hcc10       1.89481  -0.00599  -0.03164   0.00000  -0.03164   1.86317
  dih10       4.19892  -0.00013   0.02026   0.00000   0.02026   4.21918
         Item               Value     Threshold  Converged?
 Maximum Force            0.106412     0.000450     NO 
 RMS     Force            0.028289     0.000300     NO 
 Maximum Displacement     0.458071     0.001800     NO 
 RMS     Displacement     0.122474     0.001200     NO 
 Predicted change in Energy=-3.677179D-02
 Lowest energy point so far.  Saving SCF results.
 GradGradGradGradGradGradGradGradGradGradGradGradGradGradGradGradGradGrad

 Leave Link  103 at Mon May 13 15:46:28 2024, MaxMem=  4294967296 cpu:         0.4
 (Enter /g100_work/pMI24_ChiCa/g09d1/g09d01/d01/build-node-6-2-59348/src/main/l202.exe)
 ---------------------------------------------------------------------------------------------------
                            Z-MATRIX (ANGSTROMS AND DEGREES)
   CD    Cent   Atom    N1       Length/X        N2       Alpha/Y        N3        Beta/Z          J
 ---------------------------------------------------------------------------------------------------
      1      1  C 
      2      2  O        1   1.235489(     1)
      3      3  C        1   1.537547(     2)      2  122.497(    10)
      4      4  C        1   1.537577(     3)      2  122.506(    11)      3  159.368(    18)      0
      5      5  H        4   1.098784(     4)      1  113.785(    12)      2  171.135(    19)      0
      6      6  H        4   1.090231(     5)      1  106.745(    13)      5  118.246(    20)      0
      7      7  H        4   1.096354(     6)      1  113.368(    14)      5  236.518(    21)      0
      8      8  H        3   1.098756(     7)      1  113.775(    15)      2  188.821(    22)      0
      9      9  H        3   1.096345(     8)      1  113.362(    16)      8  123.485(    23)      0
     10     10  H        3   1.090228(     9)      1  106.752(    17)      8  241.741(    24)      0
 ---------------------------------------------------------------------------------------------------
                         Z-Matrix orientation:                         
 ---------------------------------------------------------------------
 Center     Atomic      Atomic             Coordinates (Angstroms)
 Number     Number       Type             X           Y           Z
 ---------------------------------------------------------------------
      1          6           0        0.000000    0.000000    0.000000
      2          8           0        0.000000    0.000000    1.235489
      3          6           0        1.296796    0.000000   -0.826057
      4          6           0       -1.213533   -0.456904   -0.826269
      5          1           0       -1.118268   -0.255469   -1.902222
      6          1           0       -1.288655   -1.537523   -0.702895
      7          1           0       -2.159789   -0.018372   -0.488212
      8          1           0        1.136570    0.154195   -1.902076
      9          1           0        2.027422    0.744343   -0.488253
     10          1           0        1.748474   -0.984459   -0.701862
 ---------------------------------------------------------------------
                    Distance matrix (angstroms):
                    1          2          3          4          5
     1  C    0.000000
     2  O    1.235489   0.000000
     3  C    1.537547   2.435499   0.000000
     4  C    1.537577   2.435625   2.551570   0.000000
     5  H    2.221314   3.340811   2.656300   1.098784   0.000000
     6  H    2.125717   2.789614   3.010599   1.090231   1.763825
     7  H    2.214357   2.763362   3.473104   1.096354   1.772119
     8  H    2.221139   3.340641   1.098756   2.655896   2.291750
     9  H    2.214245   2.763291   1.096345   3.472901   3.590863
    10  H    2.125778   2.789203   1.090228   3.011192   3.192257
                    6          7          8          9         10
     6  H    0.000000
     7  H    1.764308   0.000000
     8  H    3.190871   3.590929   0.000000
     9  H    4.031049   4.256110   1.772227   0.000000
    10  H    3.087076   4.031562   1.763937   1.764142   0.000000
 Symmetry turned off by external request.
 Stoichiometry    C3H6O
 Framework group  C1[X(C3H6O)]
 Deg. of freedom    24
 Full point group                 C1      NOp   1
 Rotational constants (GHZ):      9.5729716      8.5796970      4.8054262
 Leave Link  202 at Mon May 13 15:46:28 2024, MaxMem=  4294967296 cpu:         0.3
 (Enter /g100_work/pMI24_ChiCa/g09d1/g09d01/d01/build-node-6-2-59348/src/main/l301.exe)
 Standard basis: 6-31+G(d,p) (6D, 7F)
 Ernie: Thresh=  0.10000D-02 Tol=  0.10000D-05 Strict=F.
   106 basis functions,   170 primitive gaussians,   106 cartesian basis functions
    16 alpha electrons       16 beta electrons
       nuclear repulsion energy       117.9477059197 Hartrees.
 IExCor=  402 DFT=T Ex+Corr=B3LYP ExCW=0 ScaHFX=  0.200000
 ScaDFX=  0.800000  0.720000  1.000000  0.810000 ScalE2=  1.000000  1.000000
 IRadAn=      0 IRanWt=     -1 IRanGd=            0 ICorTp=0 IEmpDi=  4
 NAtoms=   10 NActive=   10 NUniq=   10 SFac= 1.00D+00 NAtFMM=   60 NAOKFM=F Big=F
 Integral buffers will be    131072 words long.
 Raffenetti 2 integral format.
 Two-electron integral symmetry is turned off.
 Leave Link  301 at Mon May 13 15:46:28 2024, MaxMem=  4294967296 cpu:         0.2
[...]
     26  0.332959D-03  0.223585D-03  0.339083D-03  0.416131D-05  0.559087D-03
     27  0.261526D-04  0.125612D-03 -0.610190D-04  0.885309D-03 -0.242849D-05
     28 -0.155437D-02  0.260579D-04 -0.220120D-03  0.401551D-03 -0.347359D-03
     29 -0.337714D-04  0.621121D-03  0.198294D-03  0.154633D-03  0.228899D-03
     30  0.211854D-03  0.182252D-03  0.736406D-03 -0.602949D-04  0.327312D-03
               21            22            23            24            25 
     21  0.166067D+00
     22 -0.243243D-04  0.471024D-01
     23 -0.124351D-03  0.811477D-02  0.231630D+00
     24 -0.626197D-04 -0.692115D-02 -0.140124D+00  0.147575D+00
     25 -0.885220D-03  0.273198D-02  0.494549D-03  0.272291D-02  0.232694D+00
     26  0.606208D-05  0.213182D-01  0.140923D-02  0.153133D-01  0.100789D-02
     27  0.530443D-03 -0.131399D-01 -0.195353D-02 -0.102806D-01  0.146351D+00
     28 -0.338270D-04 -0.268885D-03 -0.123701D-02 -0.150222D-02  0.281660D-02
     29  0.125099D-03  0.130508D-02 -0.212606D-01 -0.161771D-01 -0.461268D-03
     30 -0.592159D-04 -0.157912D-02  0.164683D-01  0.124324D-01  0.278484D-02
               26            27            28            29            30 
     26  0.462934D-01
     27  0.808918D-03  0.166060D+00
     28 -0.214258D-01 -0.129716D-01  0.471426D-01
     29  0.119714D-02  0.179601D-02 -0.896672D-02  0.233971D+00
     30 -0.154073D-01 -0.101686D-01 -0.744384D-02  0.139293D+00  0.145061D+00
 Force constants in internal coordinates: 
                1             2             3             4             5 
      1  0.829431D+00
      2  0.479860D-01  0.265485D+00
      3  0.479873D-01  0.161510D-01  0.265478D+00
      4  0.129220D-03  0.332660D-04  0.409327D-02  0.336179D+00
      5  0.160354D-03  0.407566D-04  0.404512D-02  0.251151D-02  0.336300D+00
      6  0.901616D-03 -0.374037D-03  0.241100D-02  0.161593D-02  0.160619D-02
      7  0.154231D-03  0.406535D-02  0.462530D-04  0.847383D-03 -0.353256D-04
      8  0.901825D-03  0.241118D-02 -0.374091D-03  0.186111D-04  0.122340D-04
      9  0.134949D-03  0.407342D-02  0.277598D-04 -0.390126D-04  0.853939D-03
     10  0.700399D-01  0.285652D-02 -0.430117D-01  0.186335D-02  0.195916D-02
     11  0.700428D-01 -0.430114D-01  0.285950D-02  0.835955D-02  0.858598D-02
     12  0.817308D-02  0.279982D-02  0.242051D-01 -0.206867D-02 -0.869468D-02
     13  0.832786D-02  0.280912D-02  0.242871D-01 -0.867443D-02 -0.212463D-02
     14 -0.347445D-02  0.514754D-02  0.280005D-01 -0.796706D-02 -0.797820D-02
     15  0.829893D-02  0.242478D-01  0.280771D-02  0.358407D-03 -0.289561D-03
     16 -0.347437D-02  0.279988D-01  0.514781D-02  0.198985D-03  0.194210D-03
     17  0.820130D-02  0.242459D-01  0.280091D-02 -0.313644D-03  0.356655D-03
     18  0.401865D-05 -0.264248D-05  0.116750D-03  0.340151D-02 -0.339643D-02
     19 -0.170404D-04 -0.438922D-04  0.445044D-04  0.113742D-02 -0.117011D-02
     20 -0.226674D-03  0.170008D-02 -0.707522D-02  0.152685D-01  0.166206D-03
     21 -0.471565D-04 -0.132932D-04  0.131592D-03 -0.139639D-01  0.139221D-01
     22 -0.136194D-04 -0.187660D-04 -0.594768D-04 -0.798162D-03  0.825650D-03
     23 -0.258108D-04  0.588469D-04 -0.247600D-04 -0.758911D-03  0.764588D-03
     24  0.247654D-03  0.699383D-02 -0.173265D-02  0.494336D-04  0.864580D-04
                6             7             8             9            10 
      6  0.349473D+00
      7  0.135547D-04  0.336281D+00
      8  0.264104D-03  0.161022D-02  0.349474D+00
      9  0.172503D-04  0.251175D-02  0.161173D-02  0.336195D+00
     10 -0.556854D-02  0.851962D-02 -0.137887D-01  0.842542D-02  0.438150D+00
     11 -0.137892D-01  0.191878D-02 -0.556869D-02  0.190377D-02  0.184246D+00
     12 -0.755204D-02  0.359308D-03 -0.648462D-03 -0.310288D-03  0.986083D-03
     13 -0.754516D-02 -0.292891D-03 -0.676827D-03  0.355819D-03  0.103652D-02
     14 -0.224506D-02  0.194399D-03  0.139030D-02  0.198690D-03 -0.268219D-01
     15 -0.675784D-03 -0.209941D-02 -0.754816D-02 -0.867637D-02  0.232274D-01
     16  0.139027D-02 -0.797980D-02 -0.224451D-02 -0.796562D-02 -0.478068D-01
     17 -0.649604D-03 -0.869252D-02 -0.754954D-02 -0.209266D-02  0.228480D-01
     18 -0.188953D-04  0.342869D-02  0.116460D-04 -0.343742D-02 -0.104269D-03
     19  0.126286D-04  0.821452D-03  0.539967D-05 -0.801738D-03  0.251380D-04
     20 -0.118810D-01 -0.244628D-04 -0.239579D-03 -0.913059D-04 -0.392776D-02
     21 -0.295870D-04  0.762347D-03  0.108152D-04 -0.761037D-03 -0.523573D-04
     22  0.286229D-05 -0.115638D-02  0.916131D-05  0.115317D-02  0.443180D-04
     23  0.710243D-05  0.139354D-01 -0.141455D-04 -0.139499D-01 -0.830583D-05
     24  0.234803D-03 -0.152626D-01  0.119135D-01 -0.162484D-03  0.107383D-01
               11            12            13            14            15 
     11  0.438168D+00
     12  0.227966D-01  0.199904D+00
     13  0.232705D-01  0.342357D-01  0.200253D+00
     14 -0.478045D-01  0.292651D-01  0.293369D-01  0.209505D+00
     15  0.107622D-02  0.637355D-02 -0.147354D-02 -0.128944D-02  0.200141D+00
     16 -0.268222D-01 -0.122541D-02 -0.128448D-02  0.750635D-02  0.293425D-01
     17  0.947180D-03 -0.154328D-02  0.638587D-02 -0.122087D-02  0.342338D-01
     18 -0.155111D-03  0.106898D-01 -0.104456D-01 -0.665772D-04  0.105271D-01
     19 -0.116075D-03 -0.603288D-02  0.604757D-02  0.695384D-04  0.126315D-03
     20 -0.107321D-01 -0.565061D-01  0.380897D-02  0.536093D-01 -0.287279D-04
     21 -0.834737D-04  0.541548D-01 -0.541674D-01 -0.617937D-05  0.138582D-02
     22  0.133255D-03 -0.216453D-03  0.116836D-03  0.123572D-04  0.599844D-02
     23  0.526221D-05 -0.142654D-02  0.138432D-02  0.251969D-04 -0.541719D-01
     24  0.403040D-02  0.182512D-04 -0.123403D-02 -0.242547D-03  0.564153D-01
               16            17            18            19            20 
     16  0.209503D+00
     17  0.292612D-01  0.200014D+00
     18  0.598135D-04 -0.106517D-01  0.956768D-01
     19  0.132066D-04 -0.206220D-03  0.851578D-02  0.518441D-02
     20  0.231491D-03  0.119536D-02 -0.343378D-03 -0.330162D-02  0.164058D+00
     21  0.225148D-04 -0.142457D-02  0.934355D-02  0.120600D-01 -0.806829D-01
     22  0.589968D-04 -0.607772D-02 -0.925667D-02 -0.381818D-02 -0.100632D-02
     23 -0.135070D-05  0.541526D-01 -0.934132D-02 -0.189335D-02  0.711699D-04
     24 -0.535415D-01 -0.373390D-02  0.640135D-04 -0.916364D-03 -0.215726D-02
               21            22            23            24 
     21  0.173667D+00
     22 -0.189369D-02  0.518229D-02
     23 -0.209773D-02  0.120631D-01  0.173666D+00
     24  0.132189D-03 -0.349992D-02 -0.808683D-01  0.164048D+00
 Leave Link  716 at Mon May 13 15:47:04 2024, MaxMem=  4294967296 cpu:         6.8
 (Enter /g100_work/pMI24_ChiCa/g09d1/g09d01/d01/build-node-6-2-59348/src/main/l103.exe)

 GradGradGradGradGradGradGradGradGradGradGradGradGradGradGradGradGradGrad
 Berny optimization.
 Search for a local minimum.
 Step number   1 out of a maximum of    2
 All quantities printed in internal units (Hartrees-Bohrs-Radians)
 Second derivative matrix not updated -- analytic derivatives used.
 ITU=  0
     Eigenvalues ---   -0.00065   0.00416   0.05950   0.06511   0.09201
     Eigenvalues ---    0.09939   0.11188   0.17575   0.19653   0.20663
     Eigenvalues ---    0.21911   0.24756   0.29658   0.30534   0.31364
     Eigenvalues ---    0.32441   0.33818   0.34054   0.34447   0.34633
     Eigenvalues ---    0.35327   0.35372   0.61190   0.87605
 Eigenvalue     1 is  -6.49D-04 should be greater than     0.000000 Eigenvector:
                         dih8      dih5      dih9      dih7      hcc8
   1                    0.70947   0.68910  -0.07424  -0.07194  -0.05352
                         hcc10     hcc5      hcc6      dih4       hc8
   1                    0.05337   0.05166  -0.05057   0.00757   0.00502
 Angle between quadratic step and forces=  83.83 degrees.
 Linear search not attempted -- first point.
 Variable       Old X    -DE/DX   Delta X   Delta X   Delta X     New X
                                 (Linear)    (Quad)   (Total)
   oc2        2.30381  -0.00021   0.00000  -0.00024  -0.00024   2.30357
   cc3        2.86947  -0.00008   0.00000  -0.00027  -0.00027   2.86920
   cco3       2.12205   0.00004   0.00000   0.00006   0.00006   2.12212
   cc4        2.86948  -0.00008   0.00000  -0.00029  -0.00029   2.86920
   cco4       2.12203   0.00004   0.00000   0.00009   0.00009   2.12212
   dih4       3.14093   0.00008   0.00000   0.00052   0.00052   3.14145
   hc5        2.07233   0.00002   0.00000   0.00007   0.00007   2.07240
   hcc5       1.92428   0.00001   0.00000  -0.00034  -0.00034   1.92394
   dih5       2.10560   0.00001   0.00000  -0.00474  -0.00474   2.10086
   hc6        2.07222   0.00000   0.00000  -0.00000  -0.00000   2.07222
   hcc6       1.92538   0.00003   0.00000   0.00050   0.00050   1.92587
   dih6       2.05561  -0.00001   0.00000  -0.00021  -0.00021   2.05541
   hc7        2.06180  -0.00001   0.00000  -0.00001  -0.00001   2.06179
   hcc7       1.92045   0.00001   0.00000   0.00013   0.00013   1.92059
   dih7       4.17035  -0.00001   0.00000   0.00033   0.00033   4.17068
   hc8        2.07223   0.00002   0.00000  -0.00002  -0.00002   2.07221
   hcc8       1.92526   0.00002   0.00000   0.00067   0.00067   1.92593
   dih8       4.16441  -0.00002   0.00000  -0.00848  -0.00848   4.15592
   hc9        2.06180  -0.00000   0.00000  -0.00001  -0.00001   2.06180
   hcc9       1.92047   0.00001   0.00000   0.00009   0.00009   1.92056
   dih9       2.11427   0.00001   0.00000   0.00100   0.00100   2.11527
   hc10       2.07231   0.00000   0.00000   0.00009   0.00009   2.07240
  hcc10       1.92438   0.00003   0.00000  -0.00046  -0.00046   1.92391
  dih10       4.22760   0.00000   0.00000   0.00009   0.00009   4.22769
         Item               Value     Threshold  Converged?
 Maximum Force            0.000210     0.000450     YES
 RMS     Force            0.000055     0.000300     YES
 Maximum Displacement     0.008483     0.001800     NO 
 RMS     Displacement     0.002012     0.001200     NO 
 Predicted change in Energy=-2.002015D-07
 GradGradGradGradGradGradGradGradGradGradGradGradGradGradGradGradGradGrad

 Leave Link  103 at Mon May 13 15:47:05 2024, MaxMem=  4294967296 cpu:         0.2
 (Enter /g100_work/pMI24_ChiCa/g09d1/g09d01/d01/build-node-6-2-59348/src/main/l9999.exe)
 1\1\GINC-R500N016\Freq\RB3LYP\6-31+G(d,p)\C3H6O1\GGENTIL1\13-May-2024\
 1\\#P Geom=AllCheck Guess=TCheck SCRF=Check GenChk RB3LYP/6-31+G(d,p) 
 Freq\\Acetone molecule\\0,1\C\O,1,oc2\C,1,cc3,2,cco3\C,1,cc4,2,cco4,3,
 dih4,0\H,4,hc5,1,hcc5,2,dih5,0\H,4,hc6,1,hcc6,5,dih6,0\H,4,hc7,1,hcc7,
 5,dih7,0\H,3,hc8,1,hcc8,2,dih8,0\H,3,hc9,1,hcc9,8,dih9,0\H,3,hc10,1,hc
 c10,8,dih10,0\\oc2=1.21912483\cc3=1.51845729\cco3=121.58478025\cc4=1.5
 1846401\cco4=121.58344483\dih4=179.96199444\hc5=1.0966279\hcc5=110.253
 06747\dih5=120.64199839\hc6=1.09657053\hcc6=110.31588687\dih6=117.7779
 9221\hc7=1.09105973\hcc7=110.03387014\dih7=238.94340985\hc8=1.09657875
 \hcc8=110.30906833\dih8=238.60283601\hc9=1.09105912\hcc9=110.03488927\
 dih9=121.13870694\hc10=1.09662073\hcc10=110.2586744\dih10=242.22358772
 \\Version=EM64L-G09RevD.01\HF=-193.1745049\RMSD=3.621e-09\RMSF=5.900e-
 05\ZeroPoint=0.0833736\Thermal=0.0879603\Dipole=-0.0000007,0.000078,-1
 .2573584\DipoleDeriv=1.1107243,-0.0005552,-0.0000068,-0.0000545,0.0821
 27,-0.0000247,0.000009,0.0001679,1.2790759,-0.6086028,-0.0000725,0.,-0
 .0003412,-0.326621,0.0000262,-0.0000134,-0.0001845,-1.1563313,-0.30184
 67,0.000396,0.1984964,0.0010116,0.0919588,-0.0013131,0.1693722,-0.0006
 457,-0.1325637,-0.3018744,0.000511,-0.1984878,0.0012515,0.0919577,0.00
 18884,-0.1693548,0.0006671,-0.1325341,0.0530512,-0.0431504,-0.0055681,
 0.0104768,-0.0298625,0.1005615,-0.0077138,0.0751643,0.0315331,0.052565
 ,0.0438163,-0.0040517,-0.0103213,-0.0275844,-0.1022634,-0.0069913,-0.0
 761785,0.0289123,-0.0548088,-0.0007717,0.0339638,-0.0013598,0.0877323,
 0.0002125,0.0854004,0.0007864,0.0107219,0.0527749,0.0436439,0.0044101,
 -0.0103723,-0.0280576,0.1019511,0.007172,0.0760013,0.0294321,-0.054822
 6,-0.000475,-0.0339644,-0.0007012,0.0877376,-0.000153,-0.0854022,-0.00
 04271,0.0107277,0.0528397,-0.0433423,0.0052086,0.0104104,-0.0293879,-0
 .1008856,0.0075219,-0.075351,0.0310259\Polar=42.1801206,-0.0054306,31.
 2120293,-0.0000085,-0.000742,45.6423364\AAT=0.0009317,0.0204736,0.0006
 689,-0.5800533,-0.0010048,0.0000233,-0.0001146,-0.0000094,0.0004702,-0
 .000355,-0.6729118,0.0003681,1.3448237,0.000784,-0.0000194,0.0000774,0
 .0000107,-0.0003527,0.0000976,0.2232085,0.000425,-0.3430757,0.000444,-
 1.2945027,0.0007209,0.1526045,0.0003597,0.0005129,0.2232153,-0.001263,
 -0.3430474,0.0004595,1.2945127,-0.001071,-0.1526069,-0.0006295,0.01344
 78,-0.1012379,-0.2715498,0.0794443,0.087857,0.0141528,0.1992353,-0.003
 4163,-0.1433814,-0.0135987,-0.101827,0.2682062,0.082271,-0.0888455,0.0
 13991,-0.1971527,-0.0081426,0.1433245,-0.0004508,0.1611169,0.0026605,-
 0.0694164,0.0007074,-0.1310899,-0.0008955,0.0894534,0.0001868,-0.01358
 94,-0.1018023,-0.268968,0.0817282,-0.0886427,-0.0137686,0.1975401,0.00
 70679,0.1432919,-0.0002516,0.1611165,-0.0013949,-0.0694063,0.0004867,0
 .1310907,0.0005427,-0.0894619,-0.0000495,0.0134548,-0.1012708,0.270784
 9,0.0800003,0.0880754,-0.0143877,-0.1988668,0.004501,-0.1434334\GPTens
 =0.0068076,14.9479884,-0.0005972,-15.3583689,0.0011912,0.0004674,0.008
 269,-0.0002123,0.0047265\OptRot=-0.0000415,0.2127962,-0.0027614,0.2127
 962,0.007104,-0.0000807,-0.0027614,-0.0000807,0.0056628\DQPolar=-0.000
 8111,-0.0003822,0.0011933,-0.0298932,-35.6166842,0.1176132,0.0012829,0
 .0298899,-0.0311728,-0.0017608,0.1109594,-45.1064727,16.6276649,6.2562
 677,-22.8839326,0.1229608,-0.0003206,-0.0556018\PG=C01 [X(C3H6O1)]\NIm
 ag=1\\0.49450270,0.00012592,0.24094666,-0.00000566,0.00003836,0.939000
 99,-0.10860481,-0.00004602,-0.00000033,0.09597982,-0.00005931,-0.06760
 703,-0.00001283,0.00006450,0.02219983,-0.00000029,-0.00002706,-0.73054
 327,0.00000201,0.00003904,0.82943077,-0.17669167,-0.00003482,0.0289426
 3,0.00772949,-0.00001355,0.01926040,0.51003237,-0.00006022,-0.08866170
 ,0.00007502,-0.00002442,0.02554835,-0.00002140,0.00029224,0.52223327,0
 .02695816,0.00007104,-0.09012906,0.04075513,-0.00004970,-0.04827416,0.
 07108498,-0.00004804,0.55333517,-0.17668555,-0.00004550,-0.02893742,0.
 00772790,-0.00005537,-0.01926223,-0.02373491,-0.00003307,-0.01303818,0
 .51001630,-0.00021666,-0.08866257,-0.00014891,-0.00004451,0.02554778,0
 .00003756,-0.00003737,0.01716088,-0.00008736,0.00034067,0.52223941,-0.
 02695362,-0.00009175,-0.09012549,-0.04075647,0.00005572,-0.04827455,0.
 01303877,0.00003649,0.01433851,-0.07108226,0.00009124,0.55334207,0.004
 07226,0.02630247,-0.01431089,-0.00345337,-0.00352310,-0.00346192,-0.00
 015632,-0.00267011,0.00137744,-0.04929312,0.01224110,-0.00569333,0.047
 14652,-0.00111507,0.00169379,-0.00126417,0.00015814,-0.00087903,-0.001
 13993,-0.00008496,-0.00048696,0.00020154,0.00939442,-0.21563678,0.1270
 9003,-0.00941585,0.23468315,0.00143520,0.01407946,-0.01276967,-0.00436
 207,-0.00238121,-0.00151798,0.00051604,-0.00104328,-0.00000220,-0.0042
 7148,0.13009136,-0.13301973,0.00773696,-0.13902593,0.14427910,0.004366
 58,-0.02608582,-0.01462130,-0.00354486,0.00352094,-0.00354815,-0.00014
 897,0.00265221,0.00138951,-0.04929855,-0.01065499,-0.00461793,-0.00026
 893,0.00134648,0.00162011,0.04710667,0.00118177,0.00162519,0.00134355,
 -0.00013515,-0.00086251,0.00111930,0.00009821,-0.00046650,-0.00016180,
 -0.00796371,-0.21220519,-0.12833722,-0.00119654,-0.02125868,-0.0165566
 6,0.00768861,0.23091136,0.00163518,-0.01384101,-0.01292282,-0.00444216
 ,0.00228514,-0.00153230,0.00053568,0.00100122,0.00003236,-0.00324363,-
 0.13126605,-0.13679141,0.00146328,0.01608836,0.01243144,0.00663078,0.1
 4037105,0.14835959,-0.02470003,-0.00021720,0.02210163,0.00558190,0.000
 04299,0.00033970,-0.00345694,0.00000226,-0.00508980,-0.21497030,-0.001
 63360,0.13374228,0.00286050,-0.00044921,-0.00281332,0.00268911,0.00050
 560,-0.00269541,0.23267481,0.00006763,-0.00132659,0.00004487,0.0000055
 8,-0.00110252,-0.00003443,0.00001421,0.00104062,0.00002215,-0.00164964
 ,-0.04853134,0.00121873,-0.02145912,0.00110957,0.01544182,0.02128234,0
 .00149520,-0.01527993,0.00174630,0.04630428,-0.01598738,-0.00016810,0.
 01159196,0.00128279,0.00001116,0.00188060,-0.00250018,0.00001480,-0.00
 182936,0.13838649,0.00125103,-0.15767006,0.01292749,-0.00173304,-0.010
 13931,0.01318198,0.00201766,-0.01030978,-0.14634781,-0.00140032,0.1660
 6734,0.00431120,-0.02613130,0.01456318,-0.00352658,0.00352195,0.003530
 74,-0.04930082,-0.01104693,0.00490372,-0.00015039,0.00266810,-0.001393
 99,-0.00155149,-0.00003347,-0.00021246,0.00023369,-0.00005109,0.000273
 32,0.00041885,0.00033473,-0.00002432,0.04710245,0.00116161,0.00165472,
 -0.00133536,-0.00013644,-0.00086904,-0.00112614,-0.00831204,-0.2128534
 9,0.12810544,0.00009377,-0.00046861,0.00016419,0.00002568,0.00061884,-
 0.00017836,-0.00004896,-0.00008358,0.00010384,-0.00015593,0.00022279,-
 0.00012435,0.00811477,0.23162973,-0.00159522,0.01388377,-0.01289359,0.
 00442650,-0.00230388,-0.00153062,0.00351153,0.13104713,-0.13606147,-0.
 00052807,-0.00100322,0.00003095,0.00022100,-0.00019442,0.00073280,-0.0
 0027300,-0.00010374,0.00005753,-0.00006228,-0.00033777,-0.00006262,-0.
 00692115,-0.14012406,0.14757517,-0.02469980,-0.00012531,-0.02210153,0.
 00558202,0.00002316,-0.00033934,-0.21498862,-0.00093897,-0.13374536,-0
 .00345655,-0.00000847,0.00508973,0.00040062,0.00015685,0.00005944,0.00
 041963,-0.00015375,0.00006310,-0.00149945,0.00000534,-0.00088522,0.002
 73198,0.00049455,0.00272291,0.23269356,0.00004961,-0.00132680,-0.00001
 314,0.00000142,-0.00110276,0.00001975,-0.00094701,-0.04852201,-0.00071
 232,0.00000786,0.00104105,-0.00002835,-0.00034930,0.00022809,-0.000326
 00,0.00033296,0.00022358,0.00033908,0.00000416,0.00055909,0.00000606,0
 .02131817,0.00140923,0.01531327,0.00100789,0.04629340,0.01598897,0.000
 09481,0.01159291,-0.00128347,-0.00000615,0.00188083,-0.13838930,-0.000
 73200,-0.15766394,0.00250043,-0.00000743,-0.00182964,0.00003196,-0.000
 12381,-0.00006075,0.00002615,0.00012561,-0.00006102,0.00088531,-0.0000
 0243,0.00053044,-0.01313991,-0.00195353,-0.01028058,0.14635144,0.00080
 892,0.16606039,0.00412913,0.02625759,0.01436969,-0.00347150,-0.0035222
 1,0.00347908,-0.04928360,0.01182701,0.00540440,-0.00015481,-0.00265427
 ,-0.00137318,0.00024333,0.00004267,0.00029158,-0.00155437,0.00002606,-
 0.00022012,0.00040155,-0.00034736,-0.00003383,-0.00026889,-0.00123701,
 -0.00150222,0.00281660,-0.02142576,-0.01297157,0.04714256,-0.00113530,
 0.00166432,0.00127261,0.00015690,-0.00087306,0.00113331,0.00902510,-0.
 21499245,-0.12734095,-0.00008943,-0.00048462,-0.00019908,0.00004477,-0
 .00007199,-0.00010121,-0.00003377,0.00062112,0.00019829,0.00015463,0.0
 0022890,0.00012510,0.00130508,-0.02126059,-0.01617707,-0.00046127,0.00
 119714,0.00179601,-0.00896672,0.23397123,-0.00147533,-0.01403952,-0.01
 280195,0.00437807,0.00236270,-0.00151931,0.00399945,-0.13032995,-0.133
 74586,-0.00052365,0.00104180,-0.00000066,-0.00029198,0.00010138,0.0000
 6629,0.00021185,0.00018225,0.00073641,-0.00006029,0.00032731,-0.000059
 22,-0.00157912,0.01646831,0.01243242,0.00278484,-0.01540727,-0.0101686
 4,-0.00744384,0.13929299,0.14506051\\0.00000367,0.00009475,-0.00015154
 ,-0.00000191,-0.00003093,0.00021026,0.00008815,-0.00003154,-0.00006395
 ,-0.00008872,-0.00002780,-0.00006565,0.00000050,-0.00000287,0.00002179
 ,0.00001063,-0.00000437,0.00000863,-0.00000200,0.00000446,0.00000573,-
 0.00000083,-0.00000174,0.00002275,0.00000204,0.00000317,0.00000527,-0.
 00001154,-0.00000313,0.00000673\\\@


 ERROR IS THE FORCE THAT WELDS MEN TOGETHER....
 TRUTH IS COMMUNICATED TO MEN ONLY BY DEEDS OF TRUTH.
           TOLSTOI,MY RELIGION
 Job cpu time:       0 days  0 hours  2 minutes 24.9 seconds.
 File lengths (MBytes):  RWF=     17 Int=      0 D2E=      0 Chk=      2 Scr=      1
 Normal termination of Gaussian 09 at Mon May 13 15:47:05 2024.
