 Entering Gaussian System, Link 0=g09
 Input=c2h6.com
 Output=c2h6.log
 Initial command:
 /programs/64bit/g09/g09-gfortran/bin/l1.exe /data/scratch/Gau-3682.inp -scrdir=/data/scratch/
 Entering Link 1 = /programs/64bit/g09/g09-gfortran/bin/l1.exe PID=      3683.
  
 Copyright (c) 1988,1990,1992,1993,1995,1998,2003,2009, Gaussian, Inc.
                  All Rights Reserved.
  
 This is part of the Gaussian(R) 09 program.  It is based on
 the Gaussian(R) 03 system (copyright 2003, Gaussian, Inc.),
 the Gaussian(R) 98 system (copyright 1998, Gaussian, Inc.),
 the Gaussian(R) 94 system (copyright 1995, Gaussian, Inc.),
 the Gaussian 92(TM) system (copyright 1992, Gaussian, Inc.),
 the Gaussian 90(TM) system (copyright 1990, Gaussian, Inc.),
 the Gaussian 88(TM) system (copyright 1988, Gaussian, Inc.),
 the Gaussian 86(TM) system (copyright 1986, Carnegie Mellon
 University), and the Gaussian 82(TM) system (copyright 1983,
 Carnegie Mellon University). Gaussian is a federally registered
 trademark of Gaussian, Inc.
  
 This software contains proprietary and confidential information,
 including trade secrets, belonging to Gaussian, Inc.
  
 This software is provided under written license and may be
 used, copied, transmitted, or stored only in accord with that
 written license.
  
 The following legend is applicable only to US Government
 contracts under FAR:
  
                    RESTRICTED RIGHTS LEGEND
  
 Use, reproduction and disclosure by the US Government is
 subject to restrictions as set forth in subparagraphs (a)
 and (c) of the Commercial Computer Software - Restricted
 Rights clause in FAR 52.227-19.
  
 Gaussian, Inc.
 340 Quinnipiac St., Bldg. 40, Wallingford CT 06492
  
  
 ---------------------------------------------------------------
 Warning -- This program may not be used in any manner that
 competes with the business of Gaussian, Inc. or will provide
 assistance to any competitor of Gaussian, Inc.  The licensee
 of this program is prohibited from giving any competitor of
 Gaussian, Inc. access to this program.  By using this program,
 the user acknowledges that Gaussian, Inc. is engaged in the
 business of creating and licensing software in the field of
 computational chemistry and represents and warrants to the
 licensee that it is not a competitor of Gaussian, Inc. and that
 it will not use this program in any manner prohibited above.
 ---------------------------------------------------------------
  

 Cite this work as:
 Gaussian 09, Revision A.02,
 M. J. Frisch, G. W. Trucks, H. B. Schlegel, G. E. Scuseria, 
 M. A. Robb, J. R. Cheeseman, G. Scalmani, V. Barone, B. Mennucci, 
 G. A. Petersson, H. Nakatsuji, M. Caricato, X. Li, H. P. Hratchian, 
 A. F. Izmaylov, J. Bloino, G. Zheng, J. L. Sonnenberg, M. Hada, 
 M. Ehara, K. Toyota, R. Fukuda, J. Hasegawa, M. Ishida, T. Nakajima, 
 Y. Honda, O. Kitao, H. Nakai, T. Vreven, J. A. Montgomery, Jr., 
 J. E. Peralta, F. Ogliaro, M. Bearpark, J. J. Heyd, E. Brothers, 
 K. N. Kudin, V. N. Staroverov, R. Kobayashi, J. Normand, 
 K. Raghavachari, A. Rendell, J. C. Burant, S. S. Iyengar, J. Tomasi, 
 M. Cossi, N. Rega, J. M. Millam, M. Klene, J. E. Knox, J. B. Cross, 
 V. Bakken, C. Adamo, J. Jaramillo, R. Gomperts, R. E. Stratmann, 
 O. Yazyev, A. J. Austin, R. Cammi, C. Pomelli, J. W. Ochterski, 
 R. L. Martin, K. Morokuma, V. G. Zakrzewski, G. A. Voth, 
 P. Salvador, J. J. Dannenberg, S. Dapprich, A. D. Daniels, 
 O. Farkas, J. B. Foresman, J. V. Ortiz, J. Cioslowski, 
 and D. J. Fox, Gaussian, Inc., Wallingford CT, 2009.
 
 ******************************************
 Gaussian 09:  EM64L-G09RevA.02 11-Jun-2009
                21-Jun-2024 
 ******************************************
 %chk=tmp
 ----------------------------------------------
 #p B3LYP/6-31+g(d,p) opt freq pop=full gfinput
 ----------------------------------------------
 1/14=-1,18=20,19=15,26=3,38=1/1,3;
 2/9=110,12=2,17=6,18=5,40=1/2;
 3/5=1,6=6,7=111,11=2,16=1,24=10,25=1,30=1,71=1,74=-5/1,2,3;
 4//1;
 5/5=2,38=5/2;
 6/7=3,28=1/1;
 7//1,2,3,16;
 1/14=-1,18=20,19=15/3(2);
 2/9=110/2;
 99//99;
 2/9=110/2;
 3/5=1,6=6,7=111,11=2,16=1,25=1,30=1,71=1,74=-5/1,2,3;
 4/5=5,16=3/1;
 5/5=2,38=5/2;
 7//1,2,3,16;
 1/14=-1,18=20,19=15/3(-5);
 2/9=110/2;
 6/7=3,19=2,28=1/1;
 99/9=1/99;
 Leave Link    1 at Fri Jun 21 18:06:05 2024, MaxMem=          0 cpu:       0.0
 (Enter /programs/64bit/g09/g09-gfortran/bin/l101.exe)
 -----
 etano
 -----
 Symbolic Z-matrix:
 Charge =  0 Multiplicity = 1
 C1
 C2                   1    d1
 H3                   1    d2       2    a1
 H4                   1    d3       2    a2       3    t1       0
 H5                   1    d4       2    a3       3    t2       0
 H6                   2    d5       1    a4       3    t3       0
 H7                   2    d6       1    a5       6    t4       0
 H8                   2    d7       1    a6       6    t5       0
       Variables:
  d1                    1.4                      
  d2                    1.1                      
  d3                    1.1                      
  d4                    1.1                      
  d5                    1.1                      
  d6                    1.1                      
  d7                    1.1                      
  a1                  109.                       
  a2                  109.                       
  a3                  109.                       
  a4                  109.                       
  a5                  109.                       
  a6                  109.                       
  t1                  120.                       
  t2                 -120.                       
  t3                   60.                       
  t4                  120.                       
  t5                 -120.                       
 
 NAtoms=      8 NQM=      8 NQMF=      0 NMic=      0 NMicF=      0 NTot=      8.
                    Isotopes and Nuclear Properties:
 (Nuclear quadrupole moments (NQMom) in fm**2, nuclear magnetic moments (NMagM)
  in nuclear magnetons)

  Atom         1           2           3           4           5           6           7           8
 IAtWgt=          12          12           1           1           1           1           1           1
 AtmWgt=  12.0000000  12.0000000   1.0078250   1.0078250   1.0078250   1.0078250   1.0078250   1.0078250
 NucSpn=           0           0           1           1           1           1           1           1
 AtZEff=   0.0000000   0.0000000   0.0000000   0.0000000   0.0000000   0.0000000   0.0000000   0.0000000
 NQMom=    0.0000000   0.0000000   0.0000000   0.0000000   0.0000000   0.0000000   0.0000000   0.0000000
 NMagM=    0.0000000   0.0000000   2.7928460   2.7928460   2.7928460   2.7928460   2.7928460   2.7928460
 Leave Link  101 at Fri Jun 21 18:06:06 2024, MaxMem=   33554432 cpu:       0.4
 (Enter /programs/64bit/g09/g09-gfortran/bin/l103.exe)

 GradGradGradGradGradGradGradGradGradGradGradGradGradGradGradGradGradGrad
 Berny optimization.
 Initialization pass.
                           ----------------------------
                           !    Initial Parameters    !
                           ! (Angstroms and Degrees)  !
 --------------------------                            --------------------------
 ! Name  Definition              Value          Derivative Info.                !
 --------------------------------------------------------------------------------
 ! R1    R(1,2)                  1.4            estimate D2E/DX2                !
 ! R2    R(1,3)                  1.1            estimate D2E/DX2                !
 ! R3    R(1,4)                  1.1            estimate D2E/DX2                !
 ! R4    R(1,5)                  1.1            estimate D2E/DX2                !
 ! R5    R(2,6)                  1.1            estimate D2E/DX2                !
 ! R6    R(2,7)                  1.1            estimate D2E/DX2                !
 ! R7    R(2,8)                  1.1            estimate D2E/DX2                !
 ! A1    A(2,1,3)              109.0            estimate D2E/DX2                !
 ! A2    A(2,1,4)              109.0            estimate D2E/DX2                !
 ! A3    A(2,1,5)              109.0            estimate D2E/DX2                !
 ! A4    A(3,1,4)              109.9383         estimate D2E/DX2                !
 ! A5    A(3,1,5)              109.9383         estimate D2E/DX2                !
 ! A6    A(4,1,5)              109.9383         estimate D2E/DX2                !
 ! A7    A(1,2,6)              109.0            estimate D2E/DX2                !
 ! A8    A(1,2,7)              109.0            estimate D2E/DX2                !
 ! A9    A(1,2,8)              109.0            estimate D2E/DX2                !
 ! A10   A(6,2,7)              109.9383         estimate D2E/DX2                !
 ! A11   A(6,2,8)              109.9383         estimate D2E/DX2                !
 ! A12   A(7,2,8)              109.9383         estimate D2E/DX2                !
 ! D1    D(3,1,2,6)             60.0            estimate D2E/DX2                !
 ! D2    D(3,1,2,7)            180.0            estimate D2E/DX2                !
 ! D3    D(3,1,2,8)            -60.0            estimate D2E/DX2                !
 ! D4    D(4,1,2,6)            180.0            estimate D2E/DX2                !
 ! D5    D(4,1,2,7)            -60.0            estimate D2E/DX2                !
 ! D6    D(4,1,2,8)             60.0            estimate D2E/DX2                !
 ! D7    D(5,1,2,6)            -60.0            estimate D2E/DX2                !
 ! D8    D(5,1,2,7)             60.0            estimate D2E/DX2                !
 ! D9    D(5,1,2,8)            180.0            estimate D2E/DX2                !
 --------------------------------------------------------------------------------
 Trust Radius=3.00D-01 FncErr=1.00D-07 GrdErr=1.00D-06
 Number of steps in this run=  38 maximum allowed number of steps= 100.
 GradGradGradGradGradGradGradGradGradGradGradGradGradGradGradGradGradGrad

 Leave Link  103 at Fri Jun 21 18:06:06 2024, MaxMem=   33554432 cpu:       0.0
 (Enter /programs/64bit/g09/g09-gfortran/bin/l202.exe)
                          Input orientation:                          
 ---------------------------------------------------------------------
 Center     Atomic      Atomic             Coordinates (Angstroms)
 Number     Number       Type             X           Y           Z
 ---------------------------------------------------------------------
      1          6           0        0.000000    0.000000    0.000000
      2          6           0        0.000000    0.000000    1.400000
      3          1           0        1.040070    0.000000   -0.358125
      4          1           0       -0.520035   -0.900727   -0.358125
      5          1           0       -0.520035    0.900727   -0.358125
      6          1           0        0.520035    0.900727    1.758125
      7          1           0       -1.040070    0.000000    1.758125
      8          1           0        0.520035   -0.900727    1.758125
 ---------------------------------------------------------------------
                    Distance matrix (angstroms):
                    1          2          3          4          5
     1  C    0.000000
     2  C    1.400000   0.000000
     3  H    1.100000   2.042731   0.000000
     4  H    1.100000   2.042731   1.801455   0.000000
     5  H    1.100000   2.042731   1.801455   1.801455   0.000000
     6  H    2.042731   1.100000   2.358020   2.967406   2.358020
     7  H    2.042731   1.100000   2.967406   2.358020   2.358020
     8  H    2.042731   1.100000   2.358020   2.358020   2.967406
                    6          7          8
     6  H    0.000000
     7  H    1.801455   0.000000
     8  H    1.801455   1.801455   0.000000
 Stoichiometry    C2H6
 Framework group  D3D[C3(C.C),3SGD(H2)]
 Deg. of freedom     3
 Full point group                 D3D     NOp  12
 Largest Abelian subgroup         C2H     NOp   4
 Largest concise Abelian subgroup C2H     NOp   4
                         Standard orientation:                         
 ---------------------------------------------------------------------
 Center     Atomic      Atomic             Coordinates (Angstroms)
 Number     Number       Type             X           Y           Z
 ---------------------------------------------------------------------
      1          6           0        0.000000    0.000000    0.700000
      2          6           0       -0.000000   -0.000000   -0.700000
      3          1           0        0.000000    1.040070    1.058125
      4          1           0       -0.900727   -0.520035    1.058125
      5          1           0        0.900727   -0.520035    1.058125
      6          1           0        0.900727    0.520035   -1.058125
      7          1           0       -0.000000   -1.040070   -1.058125
      8          1           0       -0.900727    0.520035   -1.058125
 ---------------------------------------------------------------------
 Rotational constants (GHZ):     77.2601063     23.1814905     23.1814905
 Leave Link  202 at Fri Jun 21 18:06:06 2024, MaxMem=   33554432 cpu:       0.0
 (Enter /programs/64bit/g09/g09-gfortran/bin/l301.exe)
 Standard basis: 6-31+G(d,p) (6D, 7F)
 Ernie: Thresh=  0.10000D-02 Tol=  0.10000D-05 Strict=F.
 AO basis set in the form of general basis input (Overlap normalization):
      1 0
 S   6 1.00       0.000000000000
      0.3047524880D+04  0.1834737132D-02
      0.4573695180D+03  0.1403732281D-01
      0.1039486850D+03  0.6884262226D-01
      0.2921015530D+02  0.2321844432D+00
      0.9286662960D+01  0.4679413484D+00
      0.3163926960D+01  0.3623119853D+00
 SP   3 1.00       0.000000000000
      0.7868272350D+01 -0.1193324198D+00  0.6899906659D-01
      0.1881288540D+01 -0.1608541517D+00  0.3164239610D+00
      0.5442492580D+00  0.1143456438D+01  0.7443082909D+00
 SP   1 1.00       0.000000000000
      0.1687144782D+00  0.1000000000D+01  0.1000000000D+01
 SP   1 1.00       0.000000000000
      0.4380000000D-01  0.1000000000D+01  0.1000000000D+01
 D   1 1.00       0.000000000000
      0.8000000000D+00  0.1000000000D+01
 ****
      2 0
 S   6 1.00       0.000000000000
      0.3047524880D+04  0.1834737132D-02
      0.4573695180D+03  0.1403732281D-01
      0.1039486850D+03  0.6884262226D-01
      0.2921015530D+02  0.2321844432D+00
      0.9286662960D+01  0.4679413484D+00
      0.3163926960D+01  0.3623119853D+00
 SP   3 1.00       0.000000000000
      0.7868272350D+01 -0.1193324198D+00  0.6899906659D-01
      0.1881288540D+01 -0.1608541517D+00  0.3164239610D+00
      0.5442492580D+00  0.1143456438D+01  0.7443082909D+00
 SP   1 1.00       0.000000000000
      0.1687144782D+00  0.1000000000D+01  0.1000000000D+01
 SP   1 1.00       0.000000000000
      0.4380000000D-01  0.1000000000D+01  0.1000000000D+01
 D   1 1.00       0.000000000000
      0.8000000000D+00  0.1000000000D+01
 ****
      3 0
 S   3 1.00       0.000000000000
      0.1873113696D+02  0.3349460434D-01
      0.2825394365D+01  0.2347269535D+00
      0.6401216923D+00  0.8137573261D+00
 S   1 1.00       0.000000000000
      0.1612777588D+00  0.1000000000D+01
 P   1 1.00       0.000000000000
      0.1100000000D+01  0.1000000000D+01
 ****
      4 0
 S   3 1.00       0.000000000000
      0.1873113696D+02  0.3349460434D-01
      0.2825394365D+01  0.2347269535D+00
      0.6401216923D+00  0.8137573261D+00
 S   1 1.00       0.000000000000
      0.1612777588D+00  0.1000000000D+01
 P   1 1.00       0.000000000000
      0.1100000000D+01  0.1000000000D+01
 ****
      5 0
 S   3 1.00       0.000000000000
      0.1873113696D+02  0.3349460434D-01
      0.2825394365D+01  0.2347269535D+00
      0.6401216923D+00  0.8137573261D+00
 S   1 1.00       0.000000000000
      0.1612777588D+00  0.1000000000D+01
 P   1 1.00       0.000000000000
      0.1100000000D+01  0.1000000000D+01
 ****
      6 0
 S   3 1.00       0.000000000000
      0.1873113696D+02  0.3349460434D-01
      0.2825394365D+01  0.2347269535D+00
      0.6401216923D+00  0.8137573261D+00
 S   1 1.00       0.000000000000
      0.1612777588D+00  0.1000000000D+01
 P   1 1.00       0.000000000000
      0.1100000000D+01  0.1000000000D+01
 ****
      7 0
 S   3 1.00       0.000000000000
      0.1873113696D+02  0.3349460434D-01
      0.2825394365D+01  0.2347269535D+00
      0.6401216923D+00  0.8137573261D+00
 S   1 1.00       0.000000000000
      0.1612777588D+00  0.1000000000D+01
 P   1 1.00       0.000000000000
      0.1100000000D+01  0.1000000000D+01
 ****
      8 0
 S   3 1.00       0.000000000000
      0.1873113696D+02  0.3349460434D-01
      0.2825394365D+01  0.2347269535D+00
      0.6401216923D+00  0.8137573261D+00
 S   1 1.00       0.000000000000
      0.1612777588D+00  0.1000000000D+01
 P   1 1.00       0.000000000000
      0.1100000000D+01  0.1000000000D+01
 ****

 There are    23 symmetry adapted basis functions of AG  symmetry.
 There are    11 symmetry adapted basis functions of BG  symmetry.
 There are    11 symmetry adapted basis functions of AU  symmetry.
 There are    23 symmetry adapted basis functions of BU  symmetry.
 Integral buffers will be    131072 words long.
 Raffenetti 2 integral format.
 Two-electron integral symmetry is turned on.
    68 basis functions,   106 primitive gaussians,    68 cartesian basis functions
     9 alpha electrons        9 beta electrons
       nuclear repulsion energy        43.8958616296 Hartrees.
 IExCor=  402 DFT=T Ex+Corr=B3LYP ExCW=0 ScaHFX=  0.200000
 ScaDFX=  0.800000  0.720000  1.000000  0.810000 ScalE2=  1.000000  1.000000
 IRadAn=      0 IRanWt=     -1 IRanGd=            0 ICorTp=0
 NAtoms=    8 NActive=    8 NUniq=    2 SFac= 3.00D+00 NAtFMM=   80 NAOKFM=F Big=F
 Leave Link  301 at Fri Jun 21 18:06:06 2024, MaxMem=   33554432 cpu:       0.0
 (Enter /programs/64bit/g09/g09-gfortran/bin/l302.exe)
 NPDir=0 NMtPBC=     1 NCelOv=     1 NCel=       1 NClECP=     1 NCelD=      1
         NCelK=      1 NCelE2=     1 NClLst=     1 CellRange=     0.0.
 One-electron integrals computed using PRISM.
 One-electron integral symmetry used in STVInt
 NBasis=    68 RedAO= T  NBF=    23    11    11    23
 NBsUse=    68 1.00D-06 NBFU=    23    11    11    23
 Precomputing XC quadrature grid using
 IXCGrd= 2 IRadAn=           0 IRanWt=          -1 IRanGd=           0 AccXCQ= 1.00D-10.
 NRdTot=     510 NPtTot=       65100 NUsed=       68787 NTot=       68819
 NSgBfM=    68    68    68    68    68 NAtAll=     8     8.
 Leave Link  302 at Fri Jun 21 18:06:06 2024, MaxMem=   33554432 cpu:       0.0
 (Enter /programs/64bit/g09/g09-gfortran/bin/l303.exe)
 DipDrv:  MaxL=1.
 Leave Link  303 at Fri Jun 21 18:06:06 2024, MaxMem=   33554432 cpu:       0.0
 (Enter /programs/64bit/g09/g09-gfortran/bin/l401.exe)
 Harris functional with IExCor=  402 diagonalized for initial guess.
 ExpMin= 4.38D-02 ExpMax= 3.05D+03 ExpMxC= 4.57D+02 IAcc=2 IRadAn=         0 AccDes= 0.00D+00
 HarFok:  IExCor=  402 AccDes= 0.00D+00 IRadAn=         0 IDoV= 1
 ScaDFX=  1.000000  1.000000  1.000000  1.000000
 FoFCou: FMM=F IPFlag=           0 FMFlag=      100000 FMFlg1=           0
         NFxFlg=           0 DoJE=T BraDBF=F KetDBF=T FulRan=T
         Omega=  0.000000  0.000000  1.000000  0.000000  0.000000 ICntrl=     500 IOpCl=  0
         NMat0=    1 NMatS0=    1 NMatT0=    0 NMatD0=    1 NMtDS0=    0 NMtDT0=    0
         I1Cent=           4 NGrid=           0.
 Petite list used in FoFCou.
 Harris En= -79.8964971364875    
 Initial guess orbital symmetries:
       Occupied  (A1G) (A2U) (A1G) (A2U) (EU) (EU) (A1G) (EG) (EG)
       Virtual   (A1G) (A2U) (EU) (EU) (A1G) (EG) (EG) (EG) (EG)
                 (A2U) (EU) (EU) (A2U) (A1G) (A2U) (A1G) (EG) (EG)
                 (EU) (EU) (A2U) (EU) (EU) (EG) (EG) (A1G) (A2U)
                 (A1G) (EU) (EU) (A2U) (EG) (EG) (A1G) (EG) (EG)
                 (A1U) (A2G) (EU) (EU) (EU) (EU) (A2U) (EG) (EG)
                 (A1G) (A2U) (EU) (EU) (EG) (EG) (A1G) (A2U) (EG)
                 (EG) (EU) (EU) (A1G) (A2U)
 The electronic state of the initial guess is 1-A1G.
 Leave Link  401 at Fri Jun 21 18:06:06 2024, MaxMem=   33554432 cpu:       0.2
 (Enter /programs/64bit/g09/g09-gfortran/bin/l502.exe)
 Closed shell SCF:
 Requested convergence on RMS density matrix=1.00D-08 within 128 cycles.
 Requested convergence on MAX density matrix=1.00D-06.
 Requested convergence on             energy=1.00D-06.
 No special actions if energy rises.
 Using DIIS extrapolation, IDIIS=  1040.
 Integral symmetry usage will be decided dynamically.
        68702 words used for storage of precomputed grid.
 Keep R1 ints in memory in canonical form, NReq=3743695.
 IEnd=      102160 IEndB=      102160 NGot=    33554432 MDV=    30720546
 LenX=    30720546 LenY=    30715481
 Symmetry not used in FoFDir.
 MinBra= 0 MaxBra= 2 Meth= 1.
 IRaf=       0 NMat=   1 IRICut=       1 DoRegI=T DoRafI=F ISym2E= 0 JSym2E=0.

 Cycle   1  Pass 1  IDiag  1:
 E= -79.6659071004810    
 DIIS: error= 5.92D-02 at cycle   1 NSaved=   1.
 NSaved= 1 IEnMin= 1 EnMin= -79.6659071004810     IErMin= 1 ErrMin= 5.92D-02
 ErrMax= 5.92D-02 EMaxC= 1.00D-01 BMatC= 1.45D-01 BMatP= 1.45D-01
 IDIUse=3 WtCom= 4.08D-01 WtEn= 5.92D-01
 Coeff-Com:  0.100D+01
 Coeff-En:   0.100D+01
 Coeff:      0.100D+01
 Gap=     0.261 Goal=   None    Shift=    0.000
 GapD=    0.261 DampG=1.000 DampE=0.500 DampFc=0.5000 IDamp=-1.
 Damping current iteration by 5.00D-01
 RMSDP=1.11D-02 MaxDP=1.56D-01              OVMax= 2.31D-01

 Cycle   2  Pass 1  IDiag  1:
 E= -79.7289423931147     Delta-E=       -0.063035292634 Rises=F Damp=T
 DIIS: error= 1.11D-02 at cycle   2 NSaved=   2.
 NSaved= 2 IEnMin= 2 EnMin= -79.7289423931147     IErMin= 2 ErrMin= 1.11D-02
 ErrMax= 1.11D-02 EMaxC= 1.00D-01 BMatC= 5.93D-03 BMatP= 1.45D-01
 IDIUse=3 WtCom= 8.89D-01 WtEn= 1.11D-01
 Coeff-Com:  0.128D+00 0.872D+00
 Coeff-En:   0.227D+00 0.773D+00
 Coeff:      0.139D+00 0.861D+00
 Gap=     0.341 Goal=   None    Shift=    0.000
 RMSDP=1.65D-03 MaxDP=1.49D-02 DE=-6.30D-02 OVMax= 1.48D-01

 Cycle   3  Pass 1  IDiag  1:
 E= -79.8265181732592     Delta-E=       -0.097575780144 Rises=F Damp=F
 DIIS: error= 1.70D-03 at cycle   3 NSaved=   3.
 NSaved= 3 IEnMin= 3 EnMin= -79.8265181732592     IErMin= 3 ErrMin= 1.70D-03
 ErrMax= 1.70D-03 EMaxC= 1.00D-01 BMatC= 9.99D-05 BMatP= 5.93D-03
 IDIUse=3 WtCom= 9.83D-01 WtEn= 1.70D-02
 Coeff-Com:  0.502D-02 0.566D-01 0.938D+00
 Coeff-En:   0.000D+00 0.000D+00 0.100D+01
 Coeff:      0.493D-02 0.556D-01 0.939D+00
 Gap=     0.350 Goal=   None    Shift=    0.000
 RMSDP=1.76D-04 MaxDP=2.10D-03 DE=-9.76D-02 OVMax= 3.86D-03

 Cycle   4  Pass 1  IDiag  1:
 E= -79.8265992527613     Delta-E=       -0.000081079502 Rises=F Damp=F
 DIIS: error= 4.92D-04 at cycle   4 NSaved=   4.
 NSaved= 4 IEnMin= 4 EnMin= -79.8265992527613     IErMin= 4 ErrMin= 4.92D-04
 ErrMax= 4.92D-04 EMaxC= 1.00D-01 BMatC= 8.89D-06 BMatP= 9.99D-05
 IDIUse=3 WtCom= 9.95D-01 WtEn= 4.92D-03
 Coeff-Com: -0.862D-03-0.793D-02 0.216D+00 0.793D+00
 Coeff-En:   0.000D+00 0.000D+00 0.000D+00 0.100D+01
 Coeff:     -0.857D-03-0.789D-02 0.215D+00 0.794D+00
 Gap=     0.350 Goal=   None    Shift=    0.000
 RMSDP=4.23D-05 MaxDP=4.48D-04 DE=-8.11D-05 OVMax= 1.13D-03

 Cycle   5  Pass 1  IDiag  1:
 E= -79.8266073847510     Delta-E=       -0.000008131990 Rises=F Damp=F
 DIIS: error= 3.47D-05 at cycle   5 NSaved=   5.
 NSaved= 5 IEnMin= 5 EnMin= -79.8266073847510     IErMin= 5 ErrMin= 3.47D-05
 ErrMax= 3.47D-05 EMaxC= 1.00D-01 BMatC= 5.71D-08 BMatP= 8.89D-06
 IDIUse=1 WtCom= 1.00D+00 WtEn= 0.00D+00
 Coeff-Com:  0.512D-03-0.620D-03-0.474D-03 0.171D-01 0.984D+00
 Coeff:      0.512D-03-0.620D-03-0.474D-03 0.171D-01 0.984D+00
 Gap=     0.350 Goal=   None    Shift=    0.000
 RMSDP=3.54D-06 MaxDP=4.41D-05 DE=-8.13D-06 OVMax= 1.13D-04

 Cycle   6  Pass 1  IDiag  1:
 E= -79.8266074531554     Delta-E=       -0.000000068404 Rises=F Damp=F
 DIIS: error= 1.09D-06 at cycle   6 NSaved=   6.
 NSaved= 6 IEnMin= 6 EnMin= -79.8266074531554     IErMin= 6 ErrMin= 1.09D-06
 ErrMax= 1.09D-06 EMaxC= 1.00D-01 BMatC= 4.89D-11 BMatP= 5.71D-08
 IDIUse=1 WtCom= 1.00D+00 WtEn= 0.00D+00
 Coeff-Com: -0.122D-04 0.219D-05-0.108D-02-0.368D-02 0.187D-02 0.100D+01
 Coeff:     -0.122D-04 0.219D-05-0.108D-02-0.368D-02 0.187D-02 0.100D+01
 Gap=     0.350 Goal=   None    Shift=    0.000
 RMSDP=2.39D-07 MaxDP=2.40D-06 DE=-6.84D-08 OVMax= 3.67D-06

 Cycle   7  Pass 1  IDiag  1:
 E= -79.8266074532507     Delta-E=       -0.000000000095 Rises=F Damp=F
 DIIS: error= 9.03D-08 at cycle   7 NSaved=   7.
 NSaved= 7 IEnMin= 7 EnMin= -79.8266074532507     IErMin= 7 ErrMin= 9.03D-08
 ErrMax= 9.03D-08 EMaxC= 1.00D-01 BMatC= 2.39D-13 BMatP= 4.89D-11
 IDIUse=1 WtCom= 1.00D+00 WtEn= 0.00D+00
 Coeff-Com: -0.832D-06 0.107D-05 0.425D-04-0.340D-04-0.279D-02-0.253D-01
 Coeff-Com:  0.103D+01
 Coeff:     -0.832D-06 0.107D-05 0.425D-04-0.340D-04-0.279D-02-0.253D-01
 Coeff:      0.103D+01
 Gap=     0.350 Goal=   None    Shift=    0.000
 RMSDP=1.24D-08 MaxDP=1.58D-07 DE=-9.53D-11 OVMax= 3.33D-07

 Cycle   8  Pass 1  IDiag  1:
 E= -79.8266074532514     Delta-E=       -0.000000000001 Rises=F Damp=F
 DIIS: error= 2.86D-09 at cycle   8 NSaved=   8.
 NSaved= 8 IEnMin= 8 EnMin= -79.8266074532514     IErMin= 8 ErrMin= 2.86D-09
 ErrMax= 2.86D-09 EMaxC= 1.00D-01 BMatC= 4.03D-16 BMatP= 2.39D-13
 IDIUse=1 WtCom= 1.00D+00 WtEn= 0.00D+00
 Coeff-Com:  0.827D-07-0.149D-07 0.294D-05 0.762D-05 0.705D-04-0.354D-02
 Coeff-Com: -0.806D-02 0.101D+01
 Coeff:      0.827D-07-0.149D-07 0.294D-05 0.762D-05 0.705D-04-0.354D-02
 Coeff:     -0.806D-02 0.101D+01
 Gap=     0.350 Goal=   None    Shift=    0.000
 RMSDP=6.08D-10 MaxDP=4.82D-09 DE=-6.82D-13 OVMax= 1.22D-08

 SCF Done:  E(RB3LYP) =  -79.8266074533     A.U. after    8 cycles
             Convg  =    0.6077D-09             -V/T =  2.0076
 KE= 7.922548945531D+01 PE=-2.716818644783D+02 EE= 6.873390594020D+01
 Leave Link  502 at Fri Jun 21 18:06:08 2024, MaxMem=   33554432 cpu:       1.2
 (Enter /programs/64bit/g09/g09-gfortran/bin/l601.exe)
 Copying SCF densities to generalized density rwf, IOpCl= 0 IROHF=0.

 **********************************************************************

            Population analysis using the SCF density.

 **********************************************************************

 Orbital symmetries:
       Occupied  (A1G) (A2U) (A1G) (A2U) (EU) (EU) (A1G) (EG) (EG)
       Virtual   (A1G) (A2U) (EU) (EU) (A1G) (EG) (EG) (A2U) (EG)
                 (EG) (EU) (EU) (A2U) (A1G) (A2U) (A1G) (EU) (EU)
                 (EG) (EG) (A2U) (EU) (EU) (EG) (EG) (A1G) (A2U)
                 (A1G) (EU) (EU) (A2U) (EG) (EG) (A1U) (A2G) (EG)
                 (EG) (A1G) (EU) (EU) (EU) (EU) (A2U) (EG) (EG)
                 (A1G) (A2U) (EU) (EU) (EG) (EG) (A1G) (A2U) (EG)
                 (EG) (EU) (EU) (A1G) (A2U)
 The electronic state is 1-A1G.
 Alpha  occ. eigenvalues --  -10.16900 -10.16849  -0.78453  -0.59846  -0.45504
 Alpha  occ. eigenvalues --   -0.45504  -0.37617  -0.33294  -0.33294
 Alpha virt. eigenvalues --    0.01715   0.03568   0.04836   0.04836   0.07723
 Alpha virt. eigenvalues --    0.09113   0.09113   0.14488   0.18689   0.18689
 Alpha virt. eigenvalues --    0.20494   0.20494   0.28281   0.28914   0.35218
 Alpha virt. eigenvalues --    0.57643   0.65960   0.65960   0.65970   0.65970
 Alpha virt. eigenvalues --    0.76733   0.89706   0.89706   0.98069   0.98069
 Alpha virt. eigenvalues --    1.01447   1.10290   1.11676   1.31982   1.31982
 Alpha virt. eigenvalues --    1.48668   1.74773   1.74773   2.03798   2.04013
 Alpha virt. eigenvalues --    2.04239   2.04239   2.06498   2.09442   2.09442
 Alpha virt. eigenvalues --    2.33034   2.33034   2.36212   2.52101   2.52101
 Alpha virt. eigenvalues --    2.67850   2.75723   2.80854   2.80854   2.94702
 Alpha virt. eigenvalues --    2.94702   3.22521   3.25870   3.35248   3.35248
 Alpha virt. eigenvalues --    3.55816   3.55816   4.36511   4.62096
     Molecular Orbital Coefficients:
                           1         2         3         4         5
                       (A1G)--O  (A2U)--O  (A1G)--O  (A2U)--O   (EU)--O
     Eigenvalues --   -10.16900 -10.16849  -0.78453  -0.59846  -0.45504
   1 1   C  1S          0.70197   0.70221  -0.15348  -0.12877   0.00000
   2        2S          0.03547   0.03595   0.28962   0.25399   0.00000
   3        2PX         0.00000   0.00000   0.00000   0.00000   0.00000
   4        2PY         0.00000   0.00000   0.00000   0.00000   0.31967
   5        2PZ         0.00001  -0.00034  -0.09452   0.13848   0.00000
   6        3S         -0.00961  -0.01787   0.22840   0.28289  -0.00000
   7        3PX         0.00000   0.00000   0.00000   0.00000   0.00000
   8        3PY         0.00000  -0.00000   0.00000  -0.00000   0.13818
   9        3PZ        -0.00068   0.00359  -0.01152   0.02938   0.00000
  10        4S         -0.00062  -0.00057   0.00686   0.05975  -0.00000
  11        4PX         0.00000   0.00000   0.00000   0.00000   0.00000
  12        4PY         0.00000  -0.00000   0.00000  -0.00000   0.01595
  13        4PZ        -0.00006  -0.00019  -0.00211  -0.00838   0.00000
  14        5XX        -0.00653  -0.00626  -0.01070  -0.00101  -0.00936
  15        5YY        -0.00653  -0.00626  -0.01070  -0.00101   0.00936
  16        5ZZ        -0.00669  -0.00616   0.00306  -0.02051  -0.00000
  17        5XY         0.00000   0.00000   0.00000   0.00000   0.00000
  18        5XZ         0.00000   0.00000   0.00000   0.00000   0.00000
  19        5YZ         0.00000   0.00000   0.00000   0.00000  -0.00408
  20 2   C  1S          0.70197  -0.70221  -0.15348   0.12877  -0.00000
  21        2S          0.03547  -0.03595   0.28962  -0.25399  -0.00000
  22        2PX         0.00000   0.00000   0.00000   0.00000   0.00000
  23        2PY        -0.00000   0.00000  -0.00000   0.00000   0.31967
  24        2PZ        -0.00001  -0.00034   0.09452   0.13848   0.00000
  25        3S         -0.00961   0.01787   0.22840  -0.28289   0.00000
  26        3PX         0.00000   0.00000   0.00000   0.00000   0.00000
  27        3PY        -0.00000  -0.00000  -0.00000  -0.00000   0.13818
  28        3PZ         0.00068   0.00359   0.01152   0.02938   0.00000
  29        4S         -0.00062   0.00057   0.00686  -0.05975   0.00000
  30        4PX         0.00000   0.00000   0.00000   0.00000   0.00000
  31        4PY        -0.00000  -0.00000  -0.00000  -0.00000   0.01595
  32        4PZ         0.00006  -0.00019   0.00211  -0.00838   0.00000
  33        5XX        -0.00653   0.00626  -0.01070   0.00101   0.00936
  34        5YY        -0.00653   0.00626  -0.01070   0.00101  -0.00936
  35        5ZZ        -0.00669   0.00616   0.00306   0.02051   0.00000
  36        5XY         0.00000   0.00000   0.00000   0.00000   0.00000
  37        5XZ         0.00000   0.00000   0.00000   0.00000   0.00000
  38        5YZ         0.00000  -0.00000   0.00000  -0.00000   0.00408
  39 3   H  1S         -0.00019  -0.00002   0.08211   0.12112   0.17613
  40        2S          0.00250   0.00207   0.01172   0.04781   0.11252
  41        3PX         0.00000   0.00000   0.00000   0.00000   0.00000
  42        3PY         0.00007   0.00017  -0.00814  -0.00938  -0.00368
  43        3PZ        -0.00007   0.00007  -0.00424  -0.00140  -0.00518
  44 4   H  1S         -0.00019  -0.00002   0.08211   0.12112  -0.08807
  45        2S          0.00250   0.00207   0.01172   0.04781  -0.05626
  46        3PX        -0.00006  -0.00015   0.00705   0.00812  -0.00396
  47        3PY        -0.00004  -0.00009   0.00407   0.00469   0.00318
  48        3PZ        -0.00007   0.00007  -0.00424  -0.00140   0.00259
  49 5   H  1S         -0.00019  -0.00002   0.08211   0.12112  -0.08807
  50        2S          0.00250   0.00207   0.01172   0.04781  -0.05626
  51        3PX         0.00006   0.00015  -0.00705  -0.00812   0.00396
  52        3PY        -0.00004  -0.00009   0.00407   0.00469   0.00318
  53        3PZ        -0.00007   0.00007  -0.00424  -0.00140   0.00259
  54 6   H  1S         -0.00019   0.00002   0.08211  -0.12112   0.08807
  55        2S          0.00250  -0.00207   0.01172  -0.04781   0.05626
  56        3PX         0.00006  -0.00015  -0.00705   0.00812  -0.00396
  57        3PY         0.00004  -0.00009  -0.00407   0.00469   0.00318
  58        3PZ         0.00007   0.00007   0.00424  -0.00140   0.00259
  59 7   H  1S         -0.00019   0.00002   0.08211  -0.12112  -0.17613
  60        2S          0.00250  -0.00207   0.01172  -0.04781  -0.11252
  61        3PX         0.00000   0.00000   0.00000   0.00000   0.00000
  62        3PY        -0.00007   0.00017   0.00814  -0.00938  -0.00368
  63        3PZ         0.00007   0.00007   0.00424  -0.00140  -0.00518
  64 8   H  1S         -0.00019   0.00002   0.08211  -0.12112   0.08807
  65        2S          0.00250  -0.00207   0.01172  -0.04781   0.05626
  66        3PX        -0.00006   0.00015   0.00705  -0.00812   0.00396
  67        3PY         0.00004  -0.00009  -0.00407   0.00469   0.00318
  68        3PZ         0.00007   0.00007   0.00424  -0.00140   0.00259
                           6         7         8         9        10
                        (EU)--O  (A1G)--O   (EG)--O   (EG)--O  (A1G)--V
     Eigenvalues --    -0.45504  -0.37617  -0.33294  -0.33294   0.01715
   1 1   C  1S          0.00000   0.01356   0.00000   0.00000   0.05880
   2        2S          0.00000  -0.03601   0.00000   0.00000  -0.11117
   3        2PX         0.31967   0.00000   0.30893   0.00000   0.00000
   4        2PY         0.00000  -0.00000   0.00000   0.30893  -0.00000
   5        2PZ         0.00000   0.42174   0.00000   0.00000  -0.11570
   6        3S          0.00000  -0.01680   0.00000  -0.00000  -0.51225
   7        3PX         0.13818   0.00000   0.14577   0.00000   0.00000
   8        3PY         0.00000   0.00000   0.00000   0.14577   0.00000
   9        3PZ         0.00000   0.16737   0.00000  -0.00000  -0.13095
  10        4S          0.00000   0.02819   0.00000  -0.00000   0.86738
  11        4PX         0.01595   0.00000   0.05250   0.00000   0.00000
  12        4PY         0.00000   0.00000   0.00000   0.05250   0.00000
  13        4PZ         0.00000   0.03746   0.00000   0.00000   0.05909
  14        5XX         0.00000   0.01261   0.00000  -0.01478   0.01072
  15        5YY         0.00000   0.01261   0.00000   0.01478   0.01072
  16        5ZZ         0.00000  -0.01489   0.00000  -0.00000   0.00076
  17        5XY        -0.01080   0.00000  -0.01707   0.00000   0.00000
  18        5XZ        -0.00408   0.00000   0.01928   0.00000   0.00000
  19        5YZ         0.00000  -0.00000   0.00000   0.01928  -0.00000
  20 2   C  1S          0.00000   0.01356   0.00000   0.00000   0.05880
  21        2S          0.00000  -0.03601   0.00000   0.00000  -0.11117
  22        2PX         0.31967   0.00000  -0.30893   0.00000   0.00000
  23        2PY         0.00000   0.00000   0.00000  -0.30893   0.00000
  24        2PZ         0.00000  -0.42174   0.00000  -0.00000   0.11570
  25        3S          0.00000  -0.01680   0.00000  -0.00000  -0.51225
  26        3PX         0.13818   0.00000  -0.14577   0.00000   0.00000
  27        3PY         0.00000  -0.00000   0.00000  -0.14577  -0.00000
  28        3PZ         0.00000  -0.16737   0.00000   0.00000   0.13095
  29        4S          0.00000   0.02819   0.00000  -0.00000   0.86738
  30        4PX         0.01595   0.00000  -0.05250   0.00000   0.00000
  31        4PY         0.00000  -0.00000   0.00000  -0.05250  -0.00000
  32        4PZ         0.00000  -0.03746   0.00000  -0.00000  -0.05909
  33        5XX         0.00000   0.01261   0.00000  -0.01478   0.01072
  34        5YY         0.00000   0.01261   0.00000   0.01478   0.01072
  35        5ZZ         0.00000  -0.01489   0.00000  -0.00000   0.00076
  36        5XY         0.01080   0.00000  -0.01707   0.00000   0.00000
  37        5XZ         0.00408   0.00000   0.01928   0.00000   0.00000
  38        5YZ         0.00000  -0.00000   0.00000   0.01928  -0.00000
  39 3   H  1S          0.00000   0.08629   0.00000   0.22313   0.00998
  40        2S          0.00000   0.07785   0.00000   0.21711  -0.08515
  41        3PX         0.00546   0.00000   0.00585   0.00000   0.00000
  42        3PY         0.00000  -0.00325   0.00000  -0.00405   0.01124
  43        3PZ         0.00000   0.00691   0.00000  -0.00236  -0.00007
  44 4   H  1S         -0.15254   0.08629  -0.19324  -0.11157   0.00998
  45        2S         -0.09744   0.07785  -0.18802  -0.10855  -0.08515
  46        3PX        -0.00140   0.00282  -0.00158  -0.00428  -0.00973
  47        3PY        -0.00396   0.00163  -0.00428   0.00337  -0.00562
  48        3PZ         0.00449   0.00691   0.00205   0.00118  -0.00007
  49 5   H  1S          0.15254   0.08629   0.19324  -0.11157   0.00998
  50        2S          0.09744   0.07785   0.18802  -0.10855  -0.08515
  51        3PX        -0.00140  -0.00282  -0.00158   0.00428   0.00973
  52        3PY         0.00396   0.00163   0.00428   0.00337  -0.00562
  53        3PZ        -0.00449   0.00691  -0.00205   0.00118  -0.00007
  54 6   H  1S          0.15254   0.08629  -0.19324  -0.11157   0.00998
  55        2S          0.09744   0.07785  -0.18802  -0.10855  -0.08515
  56        3PX        -0.00140  -0.00282   0.00158   0.00428   0.00973
  57        3PY        -0.00396  -0.00163   0.00428  -0.00337   0.00562
  58        3PZ         0.00449  -0.00691  -0.00205  -0.00118   0.00007
  59 7   H  1S          0.00000   0.08629   0.00000   0.22313   0.00998
  60        2S          0.00000   0.07785   0.00000   0.21711  -0.08515
  61        3PX         0.00546   0.00000  -0.00585   0.00000   0.00000
  62        3PY         0.00000   0.00325   0.00000   0.00405  -0.01124
  63        3PZ         0.00000  -0.00691   0.00000   0.00236   0.00007
  64 8   H  1S         -0.15254   0.08629   0.19324  -0.11157   0.00998
  65        2S         -0.09744   0.07785   0.18802  -0.10855  -0.08515
  66        3PX        -0.00140   0.00282   0.00158  -0.00428  -0.00973
  67        3PY         0.00396  -0.00163  -0.00428  -0.00337   0.00562
  68        3PZ        -0.00449  -0.00691   0.00205  -0.00118   0.00007
                          11        12        13        14        15
                       (A2U)--V   (EU)--V   (EU)--V  (A1G)--V   (EG)--V
     Eigenvalues --     0.03568   0.04836   0.04836   0.07723   0.09113
   1 1   C  1S         -0.04817   0.00000  -0.00000  -0.02694  -0.00000
   2        2S          0.11041   0.00000  -0.00000   0.04835  -0.00000
   3        2PX         0.00000  -0.16606   0.00000   0.00000   0.00000
   4        2PY        -0.00000   0.00000  -0.16606   0.00000  -0.10972
   5        2PZ         0.02416   0.00000   0.00000  -0.06242   0.00000
   6        3S          0.32831   0.00000   0.00000   0.32736   0.00000
   7        3PX         0.00000  -0.22424   0.00000   0.00000   0.00000
   8        3PY        -0.00000   0.00000  -0.22424  -0.00000  -0.00356
   9        3PZ         0.06361   0.00000  -0.00000  -0.02528   0.00000
  10        4S          6.91376   0.00000   0.00000   0.16869   0.00000
  11        4PX         0.00000   0.60354   0.00000   0.00000   0.00000
  12        4PY        -0.00000   0.00000   0.60354  -0.00000   2.14764
  13        4PZ        -2.65501   0.00000  -0.00000   1.43685   0.00000
  14        5XX         0.00189   0.00000   0.00273  -0.01412   0.00710
  15        5YY         0.00189   0.00000  -0.00273  -0.01412  -0.00710
  16        5ZZ        -0.01616   0.00000  -0.00000   0.01399  -0.00000
  17        5XY         0.00000   0.00315   0.00000   0.00000   0.00000
  18        5XZ         0.00000   0.00866   0.00000   0.00000   0.00000
  19        5YZ        -0.00000   0.00000   0.00866  -0.00000  -0.00094
  20 2   C  1S          0.04817   0.00000   0.00000  -0.02694  -0.00000
  21        2S         -0.11041   0.00000   0.00000   0.04835  -0.00000
  22        2PX         0.00000  -0.16606   0.00000   0.00000   0.00000
  23        2PY        -0.00000   0.00000  -0.16606  -0.00000   0.10972
  24        2PZ         0.02416   0.00000   0.00000   0.06242  -0.00000
  25        3S         -0.32831   0.00000  -0.00000   0.32736   0.00000
  26        3PX         0.00000  -0.22424   0.00000   0.00000   0.00000
  27        3PY        -0.00000   0.00000  -0.22424   0.00000   0.00356
  28        3PZ         0.06361   0.00000  -0.00000   0.02528  -0.00000
  29        4S         -6.91376   0.00000  -0.00000   0.16869   0.00000
  30        4PX         0.00000   0.60354   0.00000   0.00000   0.00000
  31        4PY        -0.00000   0.00000   0.60354   0.00000  -2.14764
  32        4PZ        -2.65501   0.00000  -0.00000  -1.43685  -0.00000
  33        5XX        -0.00189   0.00000  -0.00273  -0.01412   0.00710
  34        5YY        -0.00189   0.00000   0.00273  -0.01412  -0.00710
  35        5ZZ         0.01616   0.00000   0.00000   0.01399  -0.00000
  36        5XY         0.00000  -0.00315   0.00000   0.00000   0.00000
  37        5XZ         0.00000  -0.00866   0.00000   0.00000   0.00000
  38        5YZ         0.00000   0.00000  -0.00866  -0.00000  -0.00094
  39 3   H  1S          0.00796   0.00000   0.00151  -0.03218  -0.03680
  40        2S         -0.02250   0.00000  -0.01132  -0.02153  -0.28002
  41        3PX         0.00000   0.00183   0.00000   0.00000   0.00000
  42        3PY        -0.00426   0.00000   0.00796  -0.00504   0.00666
  43        3PZ        -0.00628   0.00000   0.00378   0.00514   0.00733
  44 4   H  1S          0.00796  -0.00131  -0.00075  -0.03218   0.01840
  45        2S         -0.02250   0.00980   0.00566  -0.02153   0.14001
  46        3PX         0.00369   0.00643   0.00265   0.00436   0.00161
  47        3PY         0.00213   0.00265   0.00336   0.00252   0.00386
  48        3PZ        -0.00628  -0.00327  -0.00189   0.00514  -0.00366
  49 5   H  1S          0.00796   0.00131  -0.00075  -0.03218   0.01840
  50        2S         -0.02250  -0.00980   0.00566  -0.02153   0.14001
  51        3PX        -0.00369   0.00643  -0.00265  -0.00436  -0.00161
  52        3PY         0.00213  -0.00265   0.00336   0.00252   0.00386
  53        3PZ        -0.00628   0.00327  -0.00189   0.00514  -0.00366
  54 6   H  1S         -0.00796   0.00131   0.00075  -0.03218   0.01840
  55        2S          0.02250  -0.00980  -0.00566  -0.02153   0.14001
  56        3PX         0.00369   0.00643   0.00265  -0.00436  -0.00161
  57        3PY         0.00213   0.00265   0.00336  -0.00252  -0.00386
  58        3PZ        -0.00628  -0.00327  -0.00189  -0.00514   0.00366
  59 7   H  1S         -0.00796   0.00000  -0.00151  -0.03218  -0.03680
  60        2S          0.02250   0.00000   0.01132  -0.02153  -0.28002
  61        3PX         0.00000   0.00183   0.00000   0.00000   0.00000
  62        3PY        -0.00426   0.00000   0.00796   0.00504  -0.00666
  63        3PZ        -0.00628   0.00000   0.00378  -0.00514  -0.00733
  64 8   H  1S         -0.00796  -0.00131   0.00075  -0.03218   0.01840
  65        2S          0.02250   0.00980  -0.00566  -0.02153   0.14001
  66        3PX        -0.00369   0.00643  -0.00265   0.00436   0.00161
  67        3PY         0.00213  -0.00265   0.00336  -0.00252  -0.00386
  68        3PZ        -0.00628   0.00327  -0.00189  -0.00514   0.00366
                          16        17        18        19        20
                        (EG)--V  (A2U)--V   (EG)--V   (EG)--V   (EU)--V
     Eigenvalues --     0.09113   0.14488   0.18689   0.18689   0.20494
   1 1   C  1S          0.00000   0.04362   0.00000   0.00000  -0.00000
   2        2S          0.00000  -0.10669   0.00000   0.00000   0.00000
   3        2PX        -0.10972   0.00000   0.00000   0.23453   0.00000
   4        2PY         0.00000  -0.00000  -0.23453   0.00000  -0.22641
   5        2PZ         0.00000  -0.08700  -0.00000   0.00000   0.00000
   6        3S          0.00000  -0.15610  -0.00000   0.00000   0.00000
   7        3PX        -0.00356   0.00000   0.00000   1.40685   0.00000
   8        3PY         0.00000  -0.00000  -1.40685   0.00000  -0.79364
   9        3PZ         0.00000  -0.44079  -0.00000   0.00000   0.00000
  10        4S          0.00000  33.58244  -0.00000   0.00000  -0.00000
  11        4PX         2.14764   0.00000   0.00000   0.46075   0.00000
  12        4PY         0.00000  -0.00000  -0.46075   0.00000  -0.40323
  13        4PZ         0.00000  -9.51600   0.00000   0.00000   0.00000
  14        5XX         0.00000   0.00729  -0.01766   0.00000  -0.01495
  15        5YY         0.00000   0.00729   0.01766   0.00000   0.01495
  16        5ZZ         0.00000   0.00741  -0.00000   0.00000  -0.00000
  17        5XY         0.00819   0.00000   0.00000   0.02040   0.00000
  18        5XZ        -0.00094   0.00000   0.00000   0.00828   0.00000
  19        5YZ         0.00000   0.00000  -0.00828   0.00000   0.02858
  20 2   C  1S          0.00000  -0.04362   0.00000   0.00000   0.00000
  21        2S          0.00000   0.10669   0.00000   0.00000  -0.00000
  22        2PX         0.10972   0.00000   0.00000  -0.23453   0.00000
  23        2PY         0.00000  -0.00000   0.23453   0.00000  -0.22641
  24        2PZ         0.00000  -0.08700   0.00000   0.00000   0.00000
  25        3S          0.00000   0.15610  -0.00000   0.00000  -0.00000
  26        3PX         0.00356   0.00000   0.00000  -1.40685   0.00000
  27        3PY         0.00000  -0.00000   1.40685   0.00000  -0.79364
  28        3PZ         0.00000  -0.44079   0.00000   0.00000   0.00000
  29        4S          0.00000 -33.58244  -0.00000   0.00000   0.00000
  30        4PX        -2.14764   0.00000   0.00000  -0.46075   0.00000
  31        4PY         0.00000  -0.00000   0.46075   0.00000  -0.40323
  32        4PZ         0.00000  -9.51600  -0.00000   0.00000   0.00000
  33        5XX         0.00000  -0.00729  -0.01766   0.00000   0.01495
  34        5YY         0.00000  -0.00729   0.01766   0.00000  -0.01495
  35        5ZZ         0.00000  -0.00741  -0.00000   0.00000   0.00000
  36        5XY         0.00819   0.00000   0.00000   0.02040   0.00000
  37        5XZ        -0.00094   0.00000   0.00000   0.00828   0.00000
  38        5YZ         0.00000  -0.00000  -0.00828   0.00000  -0.02858
  39 3   H  1S          0.00000   0.03521   0.07428   0.00000   0.15891
  40        2S          0.00000  -0.09737   1.41563   0.00000   1.40948
  41        3PX         0.00293   0.00000   0.00000   0.01292   0.00000
  42        3PY         0.00000   0.00954   0.00040   0.00000  -0.00105
  43        3PZ         0.00000   0.00295  -0.01029   0.00000   0.00896
  44 4   H  1S          0.03187   0.03521  -0.03714   0.06433  -0.07945
  45        2S          0.24250  -0.09737  -0.70781   1.22597  -0.70474
  46        3PX         0.00573  -0.00826   0.00576   0.00293   0.00377
  47        3PY         0.00161  -0.00477  -0.00959  -0.00576  -0.00757
  48        3PZ        -0.00635   0.00295   0.00515  -0.00891  -0.00448
  49 5   H  1S         -0.03187   0.03521  -0.03714  -0.06433  -0.07945
  50        2S         -0.24250  -0.09737  -0.70781  -1.22597  -0.70474
  51        3PX         0.00573   0.00826  -0.00576   0.00293  -0.00377
  52        3PY        -0.00161  -0.00477  -0.00959   0.00576  -0.00757
  53        3PZ         0.00635   0.00295   0.00515   0.00891  -0.00448
  54 6   H  1S          0.03187  -0.03521  -0.03714   0.06433   0.07945
  55        2S          0.24250   0.09737  -0.70781   1.22597   0.70474
  56        3PX        -0.00573  -0.00826  -0.00576  -0.00293   0.00377
  57        3PY        -0.00161  -0.00477   0.00959   0.00576  -0.00757
  58        3PZ         0.00635   0.00295  -0.00515   0.00891  -0.00448
  59 7   H  1S          0.00000  -0.03521   0.07428   0.00000  -0.15891
  60        2S          0.00000   0.09737   1.41563   0.00000  -1.40948
  61        3PX        -0.00293   0.00000   0.00000  -0.01292   0.00000
  62        3PY         0.00000   0.00954  -0.00040   0.00000  -0.00105
  63        3PZ         0.00000   0.00295   0.01029   0.00000   0.00896
  64 8   H  1S         -0.03187  -0.03521  -0.03714  -0.06433   0.07945
  65        2S         -0.24250   0.09737  -0.70781  -1.22597   0.70474
  66        3PX        -0.00573   0.00826   0.00576  -0.00293  -0.00377
  67        3PY         0.00161  -0.00477   0.00959  -0.00576  -0.00757
  68        3PZ        -0.00635   0.00295  -0.00515  -0.00891  -0.00448
                          21        22        23        24        25
                        (EU)--V  (A2U)--V  (A1G)--V  (A2U)--V  (A1G)--V
     Eigenvalues --     0.20494   0.28281   0.28914   0.35218   0.57643
   1 1   C  1S          0.00000  -0.00427  -0.08530  -0.13957   0.02709
   2        2S          0.00000  -0.00603   0.15384   0.10253   0.06955
   3        2PX         0.22641   0.00000   0.00000   0.00000   0.00000
   4        2PY         0.00000   0.00000  -0.00000   0.00000  -0.00000
   5        2PZ         0.00000   0.28632   0.11813  -0.10621  -0.59261
   6        3S          0.00000  -0.11467   1.69841   3.87538   0.15718
   7        3PX         0.79364   0.00000   0.00000   0.00000   0.00000
   8        3PY         0.00000   0.00000  -0.00000  -0.00000   0.00000
   9        3PZ         0.00000   1.46945   0.66610  -1.61079   1.05287
  10        4S          0.00000  22.15932   1.21484  16.89501  -0.23000
  11        4PX         0.40323   0.00000   0.00000   0.00000   0.00000
  12        4PY         0.00000   0.00000  -0.00000  -0.00000  -0.00000
  13        4PZ         0.00000  -6.08655  -0.68632  -4.07652  -0.72811
  14        5XX         0.00000  -0.01656  -0.00822   0.00034  -0.02371
  15        5YY         0.00000  -0.01656  -0.00822   0.00034  -0.02371
  16        5ZZ         0.00000   0.02163   0.01347  -0.02036   0.09052
  17        5XY         0.01727   0.00000   0.00000   0.00000   0.00000
  18        5XZ        -0.02858   0.00000   0.00000   0.00000   0.00000
  19        5YZ         0.00000  -0.00000  -0.00000  -0.00000   0.00000
  20 2   C  1S          0.00000   0.00427  -0.08530   0.13957   0.02709
  21        2S          0.00000   0.00603   0.15384  -0.10253   0.06955
  22        2PX         0.22641   0.00000   0.00000   0.00000   0.00000
  23        2PY         0.00000   0.00000   0.00000   0.00000   0.00000
  24        2PZ         0.00000   0.28632  -0.11813  -0.10621   0.59261
  25        3S          0.00000   0.11467   1.69841  -3.87538   0.15718
  26        3PX         0.79364   0.00000   0.00000   0.00000   0.00000
  27        3PY         0.00000   0.00000   0.00000  -0.00000  -0.00000
  28        3PZ         0.00000   1.46945  -0.66610  -1.61079  -1.05287
  29        4S          0.00000 -22.15932   1.21484 -16.89501  -0.23000
  30        4PX         0.40323   0.00000   0.00000   0.00000   0.00000
  31        4PY         0.00000   0.00000   0.00000  -0.00000   0.00000
  32        4PZ         0.00000  -6.08655   0.68632  -4.07652   0.72811
  33        5XX         0.00000   0.01656  -0.00822  -0.00034  -0.02371
  34        5YY         0.00000   0.01656  -0.00822  -0.00034  -0.02371
  35        5ZZ         0.00000  -0.02163   0.01347   0.02036   0.09052
  36        5XY        -0.01727   0.00000   0.00000   0.00000   0.00000
  37        5XZ         0.02858   0.00000   0.00000   0.00000   0.00000
  38        5YZ         0.00000   0.00000  -0.00000   0.00000   0.00000
  39 3   H  1S          0.00000  -0.08783  -0.06004  -0.02534  -0.09591
  40        2S          0.00000  -1.01012  -1.42171  -1.11748   0.06054
  41        3PX         0.00975   0.00000   0.00000   0.00000   0.00000
  42        3PY         0.00000  -0.00435  -0.00234  -0.00281   0.00980
  43        3PZ         0.00000   0.01087   0.00441  -0.00306   0.02088
  44 4   H  1S          0.13762  -0.08783  -0.06004  -0.02534  -0.09591
  45        2S          1.22065  -1.01012  -1.42171  -1.11748   0.06054
  46        3PX         0.00323   0.00377   0.00203   0.00243  -0.00849
  47        3PY        -0.00377   0.00217   0.00117   0.00140  -0.00490
  48        3PZ         0.00776   0.01087   0.00441  -0.00306   0.02088
  49 5   H  1S         -0.13762  -0.08783  -0.06004  -0.02534  -0.09591
  50        2S         -1.22065  -1.01012  -1.42171  -1.11748   0.06054
  51        3PX         0.00323  -0.00377  -0.00203  -0.00243   0.00849
  52        3PY         0.00377   0.00217   0.00117   0.00140  -0.00490
  53        3PZ        -0.00776   0.01087   0.00441  -0.00306   0.02088
  54 6   H  1S         -0.13762   0.08783  -0.06004   0.02534  -0.09591
  55        2S         -1.22065   1.01012  -1.42171   1.11748   0.06054
  56        3PX         0.00323   0.00377  -0.00203   0.00243   0.00849
  57        3PY        -0.00377   0.00217  -0.00117   0.00140   0.00490
  58        3PZ         0.00776   0.01087  -0.00441  -0.00306  -0.02088
  59 7   H  1S          0.00000   0.08783  -0.06004   0.02534  -0.09591
  60        2S          0.00000   1.01012  -1.42171   1.11748   0.06054
  61        3PX         0.00975   0.00000   0.00000   0.00000   0.00000
  62        3PY         0.00000  -0.00435   0.00234  -0.00281  -0.00980
  63        3PZ         0.00000   0.01087  -0.00441  -0.00306  -0.02088
  64 8   H  1S          0.13762   0.08783  -0.06004   0.02534  -0.09591
  65        2S          1.22065   1.01012  -1.42171   1.11748   0.06054
  66        3PX         0.00323  -0.00377   0.00203  -0.00243  -0.00849
  67        3PY         0.00377   0.00217  -0.00117   0.00140   0.00490
  68        3PZ        -0.00776   0.01087  -0.00441  -0.00306  -0.02088
                          26        27        28        29        30
                        (EU)--V   (EU)--V   (EG)--V   (EG)--V  (A2U)--V
     Eigenvalues --     0.65960   0.65960   0.65970   0.65970   0.76733
   1 1   C  1S          0.00000   0.00000   0.00000  -0.00000  -0.03871
   2        2S          0.00000  -0.00000   0.00000  -0.00000   0.13384
   3        2PX        -0.62493   0.00000  -0.72924   0.00000   0.00000
   4        2PY         0.00000  -0.62493   0.00000  -0.72924   0.00000
   5        2PZ         0.00000   0.00000   0.00000   0.00000  -0.87078
   6        3S          0.00000   0.00000   0.00000   0.00000  -0.87588
   7        3PX         0.99169   0.00000   1.76385   0.00000   0.00000
   8        3PY         0.00000   0.99169   0.00000   1.76385  -0.00000
   9        3PZ         0.00000  -0.00000   0.00000  -0.00000   1.93196
  10        4S          0.00000  -0.00000   0.00000  -0.00000   2.78321
  11        4PX        -0.28806   0.00000  -0.74174   0.00000   0.00000
  12        4PY         0.00000  -0.28806   0.00000  -0.74174  -0.00000
  13        4PZ         0.00000   0.00000   0.00000   0.00000  -0.93439
  14        5XX         0.00000   0.03501   0.00000   0.01915   0.04246
  15        5YY         0.00000  -0.03501   0.00000  -0.01915   0.04246
  16        5ZZ         0.00000   0.00000   0.00000  -0.00000  -0.13912
  17        5XY         0.04042   0.00000   0.02211   0.00000   0.00000
  18        5XZ        -0.01650   0.00000   0.01076   0.00000   0.00000
  19        5YZ         0.00000  -0.01650   0.00000   0.01076  -0.00000
  20 2   C  1S          0.00000  -0.00000   0.00000  -0.00000   0.03871
  21        2S          0.00000   0.00000   0.00000  -0.00000  -0.13384
  22        2PX        -0.62493   0.00000   0.72924   0.00000   0.00000
  23        2PY         0.00000  -0.62493   0.00000   0.72924   0.00000
  24        2PZ         0.00000   0.00000   0.00000  -0.00000  -0.87078
  25        3S          0.00000  -0.00000   0.00000   0.00000   0.87588
  26        3PX         0.99169   0.00000  -1.76385   0.00000   0.00000
  27        3PY         0.00000   0.99169   0.00000  -1.76385  -0.00000
  28        3PZ         0.00000  -0.00000   0.00000   0.00000   1.93196
  29        4S          0.00000   0.00000   0.00000  -0.00000  -2.78321
  30        4PX        -0.28806   0.00000   0.74174   0.00000   0.00000
  31        4PY         0.00000  -0.28806   0.00000   0.74174  -0.00000
  32        4PZ         0.00000   0.00000   0.00000  -0.00000  -0.93439
  33        5XX         0.00000  -0.03501   0.00000   0.01915  -0.04246
  34        5YY         0.00000   0.03501   0.00000  -0.01915  -0.04246
  35        5ZZ         0.00000  -0.00000   0.00000  -0.00000   0.13912
  36        5XY        -0.04042   0.00000   0.02211   0.00000   0.00000
  37        5XZ         0.01650   0.00000   0.01076   0.00000   0.00000
  38        5YZ         0.00000   0.01650   0.00000   0.01076   0.00000
  39 3   H  1S          0.00000  -0.28252   0.00000  -0.09634  -0.03540
  40        2S          0.00000  -0.10194   0.00000  -0.40575  -0.38486
  41        3PX         0.02107   0.00000   0.01390   0.00000   0.00000
  42        3PY         0.00000   0.04580   0.00000   0.04955   0.01676
  43        3PZ         0.00000  -0.01386   0.00000   0.05400  -0.02159
  44 4   H  1S          0.24467   0.14126   0.08343   0.04817  -0.03540
  45        2S          0.08829   0.05097   0.35139   0.20287  -0.38486
  46        3PX         0.03962   0.01071   0.04064   0.01544  -0.01451
  47        3PY         0.01071   0.02725   0.01544   0.02281  -0.00838
  48        3PZ         0.01200   0.00693  -0.04676  -0.02700  -0.02159
  49 5   H  1S         -0.24467   0.14126  -0.08343   0.04817  -0.03540
  50        2S         -0.08829   0.05097  -0.35139   0.20287  -0.38486
  51        3PX         0.03962  -0.01071   0.04064  -0.01544   0.01451
  52        3PY        -0.01071   0.02725  -0.01544   0.02281  -0.00838
  53        3PZ        -0.01200   0.00693   0.04676  -0.02700  -0.02159
  54 6   H  1S         -0.24467  -0.14126   0.08343   0.04817   0.03540
  55        2S         -0.08829  -0.05097   0.35139   0.20287   0.38486
  56        3PX         0.03962   0.01071  -0.04064  -0.01544  -0.01451
  57        3PY         0.01071   0.02725  -0.01544  -0.02281  -0.00838
  58        3PZ         0.01200   0.00693   0.04676   0.02700  -0.02159
  59 7   H  1S          0.00000   0.28252   0.00000  -0.09634   0.03540
  60        2S          0.00000   0.10194   0.00000  -0.40575   0.38486
  61        3PX         0.02107   0.00000  -0.01390   0.00000   0.00000
  62        3PY         0.00000   0.04580   0.00000  -0.04955   0.01676
  63        3PZ         0.00000  -0.01386   0.00000  -0.05400  -0.02159
  64 8   H  1S          0.24467  -0.14126  -0.08343   0.04817   0.03540
  65        2S          0.08829  -0.05097  -0.35139   0.20287   0.38486
  66        3PX         0.03962  -0.01071  -0.04064   0.01544   0.01451
  67        3PY        -0.01071   0.02725   0.01544  -0.02281  -0.00838
  68        3PZ        -0.01200   0.00693  -0.04676   0.02700  -0.02159
                          31        32        33        34        35
                        (EU)--V   (EU)--V   (EG)--V   (EG)--V  (A1G)--V
     Eigenvalues --     0.89706   0.89706   0.98069   0.98069   1.01447
   1 1   C  1S          0.00000   0.00000  -0.00000   0.00000  -0.06199
   2        2S         -0.00000   0.00000   0.00000   0.00000  -0.24150
   3        2PX         0.00000  -0.43821   0.00000  -0.28634   0.00000
   4        2PY         0.43821   0.00000   0.28634   0.00000  -0.00000
   5        2PZ         0.00000   0.00000   0.00000   0.00000   0.27378
   6        3S          0.00000   0.00000  -0.00000   0.00000   0.11317
   7        3PX         0.00000   0.98047   0.00000   0.27998   0.00000
   8        3PY        -0.98047   0.00000  -0.27998   0.00000   0.00000
   9        3PZ        -0.00000   0.00000  -0.00000   0.00000  -0.25571
  10        4S         -0.00000   0.00000  -0.00000   0.00000  -0.56963
  11        4PX         0.00000   0.27413   0.00000   0.75213   0.00000
  12        4PY        -0.27413   0.00000  -0.75213   0.00000   0.00000
  13        4PZ         0.00000   0.00000   0.00000   0.00000   0.19304
  14        5XX         0.11554   0.00000   0.19605   0.00000  -0.08797
  15        5YY        -0.11554   0.00000  -0.19605   0.00000  -0.08797
  16        5ZZ         0.00000   0.00000   0.00000   0.00000   0.01113
  17        5XY         0.00000  -0.13342   0.00000  -0.22638   0.00000
  18        5XZ         0.00000   0.17662   0.00000   0.03705   0.00000
  19        5YZ        -0.17662   0.00000  -0.03705   0.00000   0.00000
  20 2   C  1S         -0.00000   0.00000  -0.00000   0.00000  -0.06199
  21        2S          0.00000   0.00000   0.00000   0.00000  -0.24150
  22        2PX         0.00000  -0.43821   0.00000   0.28634   0.00000
  23        2PY         0.43821   0.00000  -0.28634   0.00000   0.00000
  24        2PZ         0.00000   0.00000  -0.00000   0.00000  -0.27378
  25        3S         -0.00000   0.00000  -0.00000   0.00000   0.11317
  26        3PX         0.00000   0.98047   0.00000  -0.27998   0.00000
  27        3PY        -0.98047   0.00000   0.27998   0.00000  -0.00000
  28        3PZ        -0.00000   0.00000   0.00000   0.00000   0.25571
  29        4S          0.00000   0.00000  -0.00000   0.00000  -0.56963
  30        4PX         0.00000   0.27413   0.00000  -0.75213   0.00000
  31        4PY        -0.27413   0.00000   0.75213   0.00000  -0.00000
  32        4PZ         0.00000   0.00000  -0.00000   0.00000  -0.19304
  33        5XX        -0.11554   0.00000   0.19605   0.00000  -0.08797
  34        5YY         0.11554   0.00000  -0.19605   0.00000  -0.08797
  35        5ZZ        -0.00000   0.00000   0.00000   0.00000   0.01113
  36        5XY         0.00000   0.13342   0.00000  -0.22638   0.00000
  37        5XZ         0.00000  -0.17662   0.00000   0.03705   0.00000
  38        5YZ         0.17662   0.00000  -0.03705   0.00000   0.00000
  39 3   H  1S         -0.58687   0.00000  -0.66648   0.00000  -0.54201
  40        2S          1.66725   0.00000   1.14614   0.00000   0.63284
  41        3PX         0.00000  -0.01944   0.00000  -0.07264   0.00000
  42        3PY        -0.05137   0.00000  -0.04027   0.00000  -0.04372
  43        3PZ        -0.02627   0.00000  -0.01221   0.00000  -0.01295
  44 4   H  1S          0.29343  -0.50824   0.33324  -0.57719  -0.54201
  45        2S         -0.83362   1.44388  -0.57307   0.99259   0.63284
  46        3PX        -0.03066   0.03367  -0.04889   0.01204   0.03786
  47        3PY         0.00173   0.03066   0.04441   0.04889   0.02186
  48        3PZ         0.01314  -0.02275   0.00611  -0.01058  -0.01295
  49 5   H  1S          0.29343   0.50824   0.33324   0.57719  -0.54201
  50        2S         -0.83362  -1.44388  -0.57307  -0.99259   0.63284
  51        3PX         0.03066   0.03367   0.04889   0.01204  -0.03786
  52        3PY         0.00173  -0.03066   0.04441  -0.04889   0.02186
  53        3PZ         0.01314   0.02275   0.00611   0.01058  -0.01295
  54 6   H  1S         -0.29343   0.50824   0.33324  -0.57719  -0.54201
  55        2S          0.83362  -1.44388  -0.57307   0.99259   0.63284
  56        3PX        -0.03066   0.03367   0.04889  -0.01204  -0.03786
  57        3PY         0.00173   0.03066  -0.04441  -0.04889  -0.02186
  58        3PZ         0.01314  -0.02275  -0.00611   0.01058   0.01295
  59 7   H  1S          0.58687   0.00000  -0.66648   0.00000  -0.54201
  60        2S         -1.66725   0.00000   1.14614   0.00000   0.63284
  61        3PX         0.00000  -0.01944   0.00000   0.07264   0.00000
  62        3PY        -0.05137   0.00000   0.04027   0.00000   0.04372
  63        3PZ        -0.02627   0.00000   0.01221   0.00000   0.01295
  64 8   H  1S         -0.29343  -0.50824   0.33324   0.57719  -0.54201
  65        2S          0.83362   1.44388  -0.57307  -0.99259   0.63284
  66        3PX         0.03066   0.03367  -0.04889  -0.01204   0.03786
  67        3PY         0.00173  -0.03066  -0.04441   0.04889  -0.02186
  68        3PZ         0.01314   0.02275  -0.00611  -0.01058   0.01295
                          36        37        38        39        40
                       (A2U)--V  (A1G)--V   (EU)--V   (EU)--V  (A2U)--V
     Eigenvalues --     1.10290   1.11676   1.31982   1.31982   1.48668
   1 1   C  1S          0.01871  -0.05178   0.00000  -0.00000   0.14331
   2        2S         -1.18479  -1.54363   0.00000  -0.00000   1.53505
   3        2PX         0.00000   0.00000   0.08083   0.00000   0.00000
   4        2PY        -0.00000   0.00000   0.00000   0.08083  -0.00000
   5        2PZ        -0.05102  -0.14525   0.00000  -0.00000   0.01816
   6        3S          4.10726   3.72930   0.00000   0.00000  -6.99868
   7        3PX         0.00000   0.00000  -0.00633   0.00000   0.00000
   8        3PY         0.00000  -0.00000   0.00000  -0.00633   0.00000
   9        3PZ        -0.30429   0.72665   0.00000  -0.00000   2.33095
  10        4S         11.74090   0.55227   0.00000  -0.00000   7.07603
  11        4PX         0.00000   0.00000  -0.05110   0.00000   0.00000
  12        4PY         0.00000  -0.00000   0.00000  -0.05110   0.00000
  13        4PZ        -2.88845  -0.19544   0.00000   0.00000  -2.02170
  14        5XX         0.01810   0.00409   0.00000   0.21983   0.09623
  15        5YY         0.01810   0.00409   0.00000  -0.21983   0.09623
  16        5ZZ        -0.03675  -0.15499   0.00000   0.00000  -0.01959
  17        5XY         0.00000   0.00000   0.25384   0.00000   0.00000
  18        5XZ         0.00000   0.00000   0.42167   0.00000   0.00000
  19        5YZ         0.00000  -0.00000   0.00000   0.42167   0.00000
  20 2   C  1S         -0.01871  -0.05178   0.00000   0.00000  -0.14331
  21        2S          1.18479  -1.54363   0.00000   0.00000  -1.53505
  22        2PX         0.00000   0.00000   0.08083   0.00000   0.00000
  23        2PY        -0.00000  -0.00000   0.00000   0.08083  -0.00000
  24        2PZ        -0.05102   0.14525   0.00000  -0.00000   0.01816
  25        3S         -4.10726   3.72930   0.00000  -0.00000   6.99868
  26        3PX         0.00000   0.00000  -0.00633   0.00000   0.00000
  27        3PY         0.00000   0.00000   0.00000  -0.00633   0.00000
  28        3PZ        -0.30429  -0.72665   0.00000  -0.00000   2.33095
  29        4S        -11.74090   0.55227   0.00000   0.00000  -7.07603
  30        4PX         0.00000   0.00000  -0.05110   0.00000   0.00000
  31        4PY         0.00000   0.00000   0.00000  -0.05110   0.00000
  32        4PZ        -2.88845   0.19544   0.00000   0.00000  -2.02170
  33        5XX        -0.01810   0.00409   0.00000  -0.21983  -0.09623
  34        5YY        -0.01810   0.00409   0.00000   0.21983  -0.09623
  35        5ZZ         0.03675  -0.15499   0.00000  -0.00000   0.01959
  36        5XY         0.00000   0.00000  -0.25384   0.00000   0.00000
  37        5XZ         0.00000   0.00000  -0.42167   0.00000   0.00000
  38        5YZ        -0.00000  -0.00000   0.00000  -0.42167  -0.00000
  39 3   H  1S          0.40381   0.06078   0.00000  -0.11270   0.50838
  40        2S         -1.48515  -1.42670   0.00000   0.12207   0.22693
  41        3PX         0.00000   0.00000   0.17998   0.00000   0.00000
  42        3PY         0.05448   0.03296   0.00000  -0.06708   0.00132
  43        3PZ         0.02356  -0.02382   0.00000   0.15322  -0.01676
  44 4   H  1S          0.40381   0.06078   0.09760   0.05635   0.50838
  45        2S         -1.48515  -1.42670  -0.10572  -0.06104   0.22693
  46        3PX        -0.04718  -0.02854  -0.00531  -0.10698  -0.00114
  47        3PY        -0.02724  -0.01648  -0.10698   0.11822  -0.00066
  48        3PZ         0.02356  -0.02382  -0.13269  -0.07661  -0.01676
  49 5   H  1S          0.40381   0.06078  -0.09760   0.05635   0.50838
  50        2S         -1.48515  -1.42670   0.10572  -0.06104   0.22693
  51        3PX         0.04718   0.02854  -0.00531   0.10698   0.00114
  52        3PY        -0.02724  -0.01648   0.10698   0.11822  -0.00066
  53        3PZ         0.02356  -0.02382   0.13269  -0.07661  -0.01676
  54 6   H  1S         -0.40381   0.06078  -0.09760  -0.05635  -0.50838
  55        2S          1.48515  -1.42670   0.10572   0.06104  -0.22693
  56        3PX        -0.04718   0.02854  -0.00531  -0.10698  -0.00114
  57        3PY        -0.02724   0.01648  -0.10698   0.11822  -0.00066
  58        3PZ         0.02356   0.02382  -0.13269  -0.07661  -0.01676
  59 7   H  1S         -0.40381   0.06078   0.00000   0.11270  -0.50838
  60        2S          1.48515  -1.42670   0.00000  -0.12207  -0.22693
  61        3PX         0.00000   0.00000   0.17998   0.00000   0.00000
  62        3PY         0.05448  -0.03296   0.00000  -0.06708   0.00132
  63        3PZ         0.02356   0.02382   0.00000   0.15322  -0.01676
  64 8   H  1S         -0.40381   0.06078   0.09760  -0.05635  -0.50838
  65        2S          1.48515  -1.42670  -0.10572   0.06104  -0.22693
  66        3PX         0.04718  -0.02854  -0.00531   0.10698   0.00114
  67        3PY        -0.02724   0.01648   0.10698   0.11822  -0.00066
  68        3PZ         0.02356   0.02382   0.13269  -0.07661  -0.01676
                          41        42        43        44        45
                        (EG)--V   (EG)--V  (A1U)--V  (A2G)--V   (EG)--V
     Eigenvalues --     1.74773   1.74773   2.03798   2.04013   2.04239
   1 1   C  1S          0.00000  -0.00000   0.00000   0.00000   0.00000
   2        2S          0.00000   0.00000   0.00000   0.00000   0.00000
   3        2PX        -0.05968   0.00000  -0.00000   0.00000  -0.09255
   4        2PY         0.00000  -0.05968   0.00000   0.00000   0.00000
   5        2PZ         0.00000  -0.00000   0.00000   0.00000   0.00000
   6        3S          0.00000  -0.00000   0.00000   0.00000   0.00000
   7        3PX         0.75087   0.00000  -0.00000  -0.00000   0.80881
   8        3PY         0.00000   0.75087   0.00000   0.00000   0.00000
   9        3PZ         0.00000  -0.00000   0.00000   0.00000   0.00000
  10        4S          0.00000  -0.00000   0.00000   0.00000   0.00000
  11        4PX        -0.09577   0.00000   0.00000   0.00000  -0.34175
  12        4PY         0.00000  -0.09577   0.00000   0.00000   0.00000
  13        4PZ         0.00000   0.00000   0.00000   0.00000   0.00000
  14        5XX         0.00000  -0.22905   0.00000   0.00000   0.00000
  15        5YY         0.00000   0.22905   0.00000   0.00000   0.00000
  16        5ZZ         0.00000  -0.00000   0.00000   0.00000   0.00000
  17        5XY        -0.26448   0.00000   0.00000   0.00000  -0.47361
  18        5XZ        -0.37483   0.00000  -0.00000  -0.00000   0.14402
  19        5YZ         0.00000  -0.37483   0.00000   0.00000   0.00000
  20 2   C  1S          0.00000  -0.00000   0.00000   0.00000   0.00000
  21        2S          0.00000   0.00000   0.00000   0.00000   0.00000
  22        2PX         0.05968   0.00000  -0.00000  -0.00000   0.09255
  23        2PY         0.00000   0.05968   0.00000   0.00000   0.00000
  24        2PZ         0.00000   0.00000   0.00000   0.00000   0.00000
  25        3S          0.00000  -0.00000   0.00000   0.00000   0.00000
  26        3PX        -0.75087   0.00000  -0.00000   0.00000  -0.80881
  27        3PY         0.00000  -0.75087   0.00000   0.00000   0.00000
  28        3PZ         0.00000   0.00000   0.00000   0.00000   0.00000
  29        4S          0.00000  -0.00000   0.00000   0.00000   0.00000
  30        4PX         0.09577   0.00000   0.00000  -0.00000   0.34175
  31        4PY         0.00000   0.09577   0.00000   0.00000   0.00000
  32        4PZ         0.00000  -0.00000   0.00000   0.00000   0.00000
  33        5XX         0.00000  -0.22905   0.00000   0.00000   0.00000
  34        5YY         0.00000   0.22905   0.00000   0.00000   0.00000
  35        5ZZ         0.00000  -0.00000   0.00000   0.00000   0.00000
  36        5XY        -0.26448   0.00000  -0.00000   0.00000  -0.47361
  37        5XZ        -0.37483   0.00000   0.00000  -0.00000   0.14402
  38        5YZ         0.00000  -0.37483   0.00000   0.00000   0.00000
  39 3   H  1S          0.00000  -0.19181   0.00000   0.00000   0.00000
  40        2S          0.00000  -0.19322   0.00000   0.00000   0.00000
  41        3PX        -0.03402   0.00000   0.41082   0.41086  -0.18347
  42        3PY         0.00000   0.11707   0.00000   0.00000   0.00000
  43        3PZ         0.00000  -0.36017   0.00000   0.00000   0.00000
  44 4   H  1S          0.16611   0.09590  -0.00000  -0.00000   0.45353
  45        2S          0.16734   0.09661   0.00000   0.00000  -0.08454
  46        3PX         0.07929   0.06542  -0.20541  -0.20543  -0.22440
  47        3PY         0.06542   0.00375   0.35578   0.35582  -0.02363
  48        3PZ         0.31192   0.18009   0.00000   0.00000  -0.10171
  49 5   H  1S         -0.16611   0.09590   0.00000   0.00000  -0.45353
  50        2S         -0.16734   0.09661  -0.00000  -0.00000   0.08454
  51        3PX         0.07929  -0.06542  -0.20541  -0.20543  -0.22440
  52        3PY        -0.06542   0.00375  -0.35578  -0.35582   0.02363
  53        3PZ        -0.31192   0.18009  -0.00000  -0.00000   0.10171
  54 6   H  1S          0.16611   0.09590   0.00000  -0.00000   0.45353
  55        2S          0.16734   0.09661  -0.00000   0.00000  -0.08454
  56        3PX        -0.07929  -0.06542  -0.20541   0.20543   0.22440
  57        3PY        -0.06542  -0.00375   0.35578  -0.35582   0.02363
  58        3PZ        -0.31192  -0.18009   0.00000  -0.00000   0.10171
  59 7   H  1S          0.00000  -0.19181   0.00000   0.00000   0.00000
  60        2S          0.00000  -0.19322   0.00000   0.00000   0.00000
  61        3PX         0.03402   0.00000   0.41082  -0.41086   0.18347
  62        3PY         0.00000  -0.11707   0.00000   0.00000   0.00000
  63        3PZ         0.00000   0.36017   0.00000   0.00000   0.00000
  64 8   H  1S         -0.16611   0.09590  -0.00000   0.00000  -0.45353
  65        2S         -0.16734   0.09661   0.00000  -0.00000   0.08454
  66        3PX        -0.07929   0.06542  -0.20541   0.20543   0.22440
  67        3PY         0.06542  -0.00375  -0.35578   0.35582  -0.02363
  68        3PZ         0.31192  -0.18009  -0.00000   0.00000  -0.10171
                          46        47        48        49        50
                        (EG)--V  (A1G)--V   (EU)--V   (EU)--V   (EU)--V
     Eigenvalues --     2.04239   2.06498   2.09442   2.09442   2.33034
   1 1   C  1S         -0.00000  -0.00783   0.00000   0.00000   0.00000
   2        2S          0.00000  -0.53634   0.00000  -0.00000   0.00000
   3        2PX         0.00000   0.00000  -0.08755   0.00000   0.12763
   4        2PY        -0.09255  -0.00000   0.00000   0.08755   0.00000
   5        2PZ        -0.00000   0.34985   0.00000  -0.00000   0.00000
   6        3S         -0.00000   0.57309   0.00000  -0.00000   0.00000
   7        3PX         0.00000   0.00000   0.27417   0.00000  -0.40591
   8        3PY         0.80881   0.00000   0.00000  -0.27417   0.00000
   9        3PZ         0.00000  -0.47363   0.00000   0.00000   0.00000
  10        4S         -0.00000   0.17979   0.00000   0.00000   0.00000
  11        4PX         0.00000   0.00000  -0.11493   0.00000  -0.04563
  12        4PY        -0.34175  -0.00000   0.00000   0.11493   0.00000
  13        4PZ        -0.00000   0.19553   0.00000  -0.00000   0.00000
  14        5XX        -0.41016  -0.29208   0.00000   0.29792   0.00000
  15        5YY         0.41016  -0.29208   0.00000  -0.29792   0.00000
  16        5ZZ        -0.00000   0.61434   0.00000   0.00000   0.00000
  17        5XY         0.00000   0.00000  -0.34401   0.00000  -0.01867
  18        5XZ         0.00000   0.00000   0.30134   0.00000   0.25909
  19        5YZ         0.14402   0.00000   0.00000  -0.30134   0.00000
  20 2   C  1S         -0.00000  -0.00783   0.00000  -0.00000   0.00000
  21        2S          0.00000  -0.53634   0.00000   0.00000   0.00000
  22        2PX         0.00000   0.00000  -0.08755   0.00000   0.12763
  23        2PY         0.09255   0.00000   0.00000   0.08755   0.00000
  24        2PZ         0.00000  -0.34985   0.00000  -0.00000   0.00000
  25        3S         -0.00000   0.57309   0.00000   0.00000   0.00000
  26        3PX         0.00000   0.00000   0.27417   0.00000  -0.40591
  27        3PY        -0.80881  -0.00000   0.00000  -0.27417   0.00000
  28        3PZ        -0.00000   0.47363   0.00000   0.00000   0.00000
  29        4S         -0.00000   0.17979   0.00000  -0.00000   0.00000
  30        4PX         0.00000   0.00000  -0.11493   0.00000  -0.04563
  31        4PY         0.34175   0.00000   0.00000   0.11493   0.00000
  32        4PZ         0.00000  -0.19553   0.00000  -0.00000   0.00000
  33        5XX        -0.41016  -0.29208   0.00000  -0.29792   0.00000
  34        5YY         0.41016  -0.29208   0.00000   0.29792   0.00000
  35        5ZZ        -0.00000   0.61434   0.00000  -0.00000   0.00000
  36        5XY         0.00000   0.00000   0.34401   0.00000   0.01867
  37        5XZ         0.00000   0.00000  -0.30134   0.00000  -0.25909
  38        5YZ         0.14402   0.00000   0.00000   0.30134   0.00000
  39 3   H  1S         -0.52369   0.16240   0.00000   0.44405   0.00000
  40        2S          0.09762  -0.27911   0.00000  -0.26200   0.00000
  41        3PX         0.00000   0.00000  -0.22516   0.00000   0.18881
  42        3PY        -0.23804   0.05830   0.00000   0.25768   0.00000
  43        3PZ         0.11745   0.11760   0.00000   0.06408   0.00000
  44 4   H  1S          0.26184   0.16240   0.38456  -0.22203   0.06125
  45        2S         -0.04881  -0.27911  -0.22690   0.13100  -0.34716
  46        3PX        -0.02363  -0.05049  -0.24955   0.01408   0.18543
  47        3PY        -0.19711  -0.02915  -0.01408   0.23329  -0.00195
  48        3PZ        -0.05872   0.11760   0.05550  -0.03204   0.46295
  49 5   H  1S          0.26184   0.16240  -0.38456  -0.22203  -0.06125
  50        2S         -0.04881  -0.27911   0.22690   0.13100   0.34716
  51        3PX         0.02363   0.05049  -0.24955  -0.01408   0.18543
  52        3PY        -0.19711  -0.02915   0.01408   0.23329   0.00195
  53        3PZ        -0.05872   0.11760  -0.05550  -0.03204  -0.46295
  54 6   H  1S          0.26184   0.16240  -0.38456   0.22203  -0.06125
  55        2S         -0.04881  -0.27911   0.22690  -0.13100   0.34716
  56        3PX         0.02363   0.05049  -0.24955   0.01408   0.18543
  57        3PY         0.19711   0.02915  -0.01408   0.23329  -0.00195
  58        3PZ         0.05872  -0.11760   0.05550  -0.03204   0.46295
  59 7   H  1S         -0.52369   0.16240   0.00000  -0.44405   0.00000
  60        2S          0.09762  -0.27911   0.00000   0.26200   0.00000
  61        3PX         0.00000   0.00000  -0.22516   0.00000   0.18881
  62        3PY         0.23804  -0.05830   0.00000   0.25768   0.00000
  63        3PZ        -0.11745  -0.11760   0.00000   0.06408   0.00000
  64 8   H  1S          0.26184   0.16240   0.38456   0.22203   0.06125
  65        2S         -0.04881  -0.27911  -0.22690  -0.13100  -0.34716
  66        3PX        -0.02363  -0.05049  -0.24955  -0.01408   0.18543
  67        3PY         0.19711   0.02915   0.01408   0.23329   0.00195
  68        3PZ         0.05872  -0.11760  -0.05550  -0.03204  -0.46295
                          51        52        53        54        55
                        (EU)--V  (A2U)--V   (EG)--V   (EG)--V  (A1G)--V
     Eigenvalues --     2.33034   2.36212   2.52101   2.52101   2.67850
   1 1   C  1S         -0.00000  -0.06768   0.00000   0.00000  -0.01970
   2        2S          0.00000   0.10537   0.00000   0.00000   0.24517
   3        2PX         0.00000   0.00000   0.17300   0.00000   0.00000
   4        2PY        -0.12763   0.00000   0.00000   0.17300   0.00000
   5        2PZ        -0.00000  -0.36073   0.00000   0.00000   0.02313
   6        3S          0.00000   2.18841   0.00000  -0.00000   0.27358
   7        3PX         0.00000   0.00000   0.70928   0.00000   0.00000
   8        3PY         0.40591  -0.00000   0.00000   0.70928  -0.00000
   9        3PZ        -0.00000  -1.50083   0.00000  -0.00000   0.46499
  10        4S          0.00000  -1.51463   0.00000  -0.00000   0.01405
[...]
     23  0.771331D-03  0.371566D-03 -0.360980D-03  0.153345D-02 -0.522491D-03
     24 -0.371566D-03  0.141419D-02  0.301660D-03 -0.522491D-03 -0.718682D-02
               16            17            18            19            20 
     16  0.110217D+00
     17  0.109853D+00  0.237064D+00
     18  0.471970D-01  0.817476D-01  0.876432D-01
     19 -0.137068D-01  0.685058D-03  0.453681D-02  0.300488D+00
     20 -0.255851D-01  0.669267D-03  0.101194D-01  0.000000D+00  0.467930D-01
     21 -0.110321D-01  0.113070D-02  0.375631D-02 -0.943940D-01  0.000000D+00
     22  0.785728D-02 -0.131351D-01  0.649524D-02 -0.137068D-01  0.255851D-01
     23  0.131351D-01 -0.208948D-01  0.898868D-02 -0.685058D-03  0.669267D-03
     24  0.649524D-02 -0.898868D-02  0.375631D-02  0.453681D-02 -0.101194D-01
               21            22            23            24 
     21  0.876432D-01
     22 -0.110321D-01  0.110217D+00
     23 -0.113070D-02 -0.109853D+00  0.237064D+00
     24  0.375631D-02  0.471970D-01 -0.817476D-01  0.876432D-01
 Force constants in internal coordinates: 
                1             2             3             4             5 
      1  0.284968D+00
      2  0.552045D-02  0.336284D+00
      3  0.552029D-02  0.285604D-02  0.336283D+00
      4  0.552029D-02  0.285604D-02  0.285625D-02  0.336283D+00
      5  0.552029D-02  0.638268D-03 -0.975941D-03  0.638025D-03  0.336283D+00
      6  0.552045D-02 -0.976440D-03  0.638268D-03  0.638268D-03  0.285604D-02
      7  0.552029D-02  0.638268D-03  0.638025D-03 -0.975941D-03  0.285625D-02
      8  0.152954D-01  0.217246D-03 -0.551298D-02 -0.551298D-02 -0.111089D-02
      9  0.152955D-01 -0.551272D-02  0.217100D-03 -0.551298D-02  0.410502D-02
     10  0.152955D-01 -0.551272D-02 -0.551298D-02  0.217100D-03 -0.111072D-02
     11 -0.163155D-01  0.561945D-02  0.561982D-02  0.290054D-03 -0.117333D-02
     12 -0.163155D-01  0.561945D-02  0.290054D-03  0.561982D-02  0.337605D-03
     13 -0.163152D-01  0.289974D-03  0.561970D-02  0.561970D-02 -0.117326D-02
     14  0.152955D-01 -0.111108D-02  0.410502D-02 -0.111072D-02  0.217100D-03
     15  0.152954D-01  0.410501D-02 -0.111089D-02 -0.111089D-02 -0.551298D-02
     16  0.152955D-01 -0.111108D-02 -0.111072D-02  0.410502D-02 -0.551298D-02
     17 -0.163155D-01 -0.117305D-02 -0.117333D-02  0.337605D-03  0.561982D-02
     18 -0.163152D-01  0.337692D-03 -0.117326D-02 -0.117326D-02  0.561970D-02
     19 -0.163155D-01 -0.117305D-02  0.337605D-03 -0.117333D-02  0.290054D-03
     20  0.000000D+00 -0.537827D-03 -0.354785D-02  0.408564D-02 -0.537724D-03
     21  0.000000D+00  0.000000D+00 -0.301025D-02  0.301025D-02  0.301025D-02
     22  0.000000D+00  0.537827D-03 -0.408564D-02  0.354785D-02 -0.408554D-02
     23  0.000000D+00  0.300994D-02  0.000000D+00 -0.301014D-02  0.000000D+00
     24  0.000000D+00  0.354777D-02  0.537724D-03 -0.408554D-02  0.354785D-02
     25  0.000000D+00  0.408559D-02 -0.537676D-03 -0.354794D-02 -0.354794D-02
     26  0.000000D+00 -0.408559D-02  0.354794D-02  0.537676D-03  0.537676D-03
     27  0.000000D+00 -0.354777D-02  0.408554D-02 -0.537724D-03  0.408564D-02
     28  0.000000D+00 -0.300994D-02  0.301014D-02  0.000000D+00 -0.301014D-02
                6             7             8             9            10 
      6  0.336284D+00
      7  0.285604D-02  0.336283D+00
      8  0.410501D-02 -0.111089D-02  0.102084D+00
      9 -0.111108D-02 -0.111072D-02 -0.200058D-01  0.102084D+00
     10 -0.111108D-02  0.410502D-02 -0.200058D-01 -0.200062D-01  0.102084D+00
     11 -0.117305D-02  0.337605D-03 -0.400218D-01 -0.400221D-01  0.138326D-01
     12 -0.117305D-02 -0.117333D-02 -0.400218D-01  0.138326D-01 -0.400221D-01
     13  0.337692D-03 -0.117326D-02  0.138326D-01 -0.400219D-01 -0.400219D-01
     14 -0.551272D-02 -0.551298D-02 -0.700981D-02  0.172640D-01 -0.701006D-02
     15  0.217246D-03 -0.551298D-02  0.172636D-01 -0.700981D-02 -0.700981D-02
     16 -0.551272D-02  0.217100D-03 -0.700981D-02 -0.701006D-02  0.172640D-01
     17  0.561945D-02  0.290054D-03 -0.393097D-02 -0.393108D-02  0.440172D-02
     18  0.289974D-03  0.561970D-02  0.440166D-02 -0.393107D-02 -0.393107D-02
     19  0.561945D-02  0.561982D-02 -0.393097D-02  0.440172D-02 -0.393108D-02
     20 -0.354777D-02  0.408554D-02 -0.195182D-02 -0.476438D-02  0.671618D-02
     21  0.000000D+00 -0.301025D-02  0.000000D+00 -0.281244D-02  0.281244D-02
     22  0.354777D-02  0.537724D-03  0.195182D-02 -0.671618D-02  0.476438D-02
     23 -0.300994D-02  0.301014D-02  0.281240D-02  0.000000D+00 -0.281248D-02
     24  0.537827D-03 -0.408564D-02  0.476422D-02  0.195189D-02 -0.671622D-02
     25  0.408559D-02 -0.537676D-03  0.671605D-02 -0.195186D-02 -0.476428D-02
     26 -0.408559D-02  0.354794D-02 -0.671605D-02  0.476428D-02  0.195186D-02
     27 -0.537827D-03 -0.354785D-02 -0.476422D-02  0.671622D-02 -0.195189D-02
     28  0.300994D-02  0.000000D+00 -0.281240D-02  0.281248D-02  0.000000D+00
               11            12            13            14            15 
     11  0.518881D-01
     12  0.936905D-02  0.518881D-01
     13  0.936900D-02  0.936900D-02  0.518881D-01
     14 -0.393108D-02  0.440172D-02 -0.393107D-02  0.102084D+00
     15 -0.393097D-02 -0.393097D-02  0.440166D-02 -0.200058D-01  0.102084D+00
     16  0.440172D-02 -0.393108D-02 -0.393107D-02 -0.200062D-01 -0.200058D-01
     17  0.304608D-02  0.322440D-03  0.322546D-03 -0.400221D-01 -0.400218D-01
     18  0.322546D-03  0.322546D-03  0.304612D-02 -0.400219D-01  0.138326D-01
     19  0.322440D-03  0.304608D-02  0.322546D-03  0.138326D-01 -0.400218D-01
     20 -0.510899D-02  0.583698D-02 -0.727958D-03 -0.195189D-02 -0.476422D-02
     21 -0.656490D-02  0.656490D-02  0.000000D+00  0.281244D-02  0.000000D+00
     22 -0.583698D-02  0.510899D-02  0.727958D-03 -0.671622D-02  0.476422D-02
     23  0.656501D-02  0.000000D+00 -0.656497D-02  0.000000D+00 -0.281240D-02
     24  0.510909D-02  0.728036D-03 -0.583701D-02  0.476438D-02  0.195182D-02
     25  0.583702D-02 -0.727879D-03 -0.510905D-02 -0.476428D-02  0.671605D-02
     26  0.727879D-03 -0.583702D-02  0.510905D-02  0.195186D-02 -0.671605D-02
     27 -0.728036D-03 -0.510909D-02  0.583701D-02  0.671618D-02 -0.195182D-02
     28  0.000000D+00 -0.656501D-02  0.656497D-02 -0.281248D-02  0.281240D-02
               16            17            18            19            20 
     16  0.102084D+00
     17  0.138326D-01  0.518881D-01
     18 -0.400219D-01  0.936900D-02  0.518881D-01
     19 -0.400221D-01  0.936905D-02  0.936900D-02  0.518881D-01
     20  0.671622D-02 -0.510909D-02  0.583701D-02 -0.728036D-03  0.146932D-01
     21 -0.281244D-02  0.656490D-02  0.000000D+00 -0.656490D-02  0.366206D-02
     22  0.195189D-02  0.728036D-03 -0.583701D-02  0.510909D-02  0.405939D-02
     23  0.281248D-02 -0.656501D-02  0.656497D-02  0.000000D+00  0.366212D-02
     24 -0.671618D-02  0.510899D-02  0.727958D-03 -0.583698D-02 -0.736902D-02
     25 -0.195186D-02 -0.727879D-03 -0.510905D-02  0.583702D-02 -0.697169D-02
     26  0.476428D-02 -0.583702D-02  0.510905D-02  0.727879D-03  0.405941D-02
     27 -0.476438D-02  0.583698D-02 -0.727958D-03 -0.510899D-02 -0.697173D-02
     28  0.000000D+00  0.000000D+00 -0.656497D-02  0.656501D-02 -0.657440D-02
               21            22            23            24            25 
     21  0.138984D-01
     22  0.366206D-02  0.146932D-01
     23 -0.657431D-02 -0.657440D-02  0.138986D-01
     24  0.366206D-02 -0.697173D-02  0.366212D-02  0.146932D-01
     25 -0.657431D-02  0.405941D-02  0.366204D-02  0.405941D-02  0.146931D-01
     26 -0.657431D-02 -0.697169D-02  0.366204D-02 -0.697169D-02 -0.736906D-02
     27  0.366206D-02 -0.736902D-02 -0.657440D-02  0.405939D-02 -0.697169D-02
     28 -0.657431D-02  0.366212D-02 -0.657448D-02 -0.657440D-02  0.366204D-02
               26            27            28 
     26  0.146931D-01
     27  0.405941D-02  0.146932D-01
     28  0.366204D-02  0.366212D-02  0.138986D-01
 Leave Link  716 at Fri Jun 21 18:06:28 2024, MaxMem=   33554432 cpu:       0.0
 (Enter /programs/64bit/g09/g09-gfortran/bin/l103.exe)

 GradGradGradGradGradGradGradGradGradGradGradGradGradGradGradGradGradGrad
 Berny optimization.
 Internal  Forces:  Max     0.000110081 RMS     0.000023558
 Search for a local minimum.
 Step number   1 out of a maximum of    2
 All quantities printed in internal units (Hartrees-Bohrs-Radians)
 Second derivative matrix not updated -- analytic derivatives used.
     Eigenvalues ---    0.00225   0.04507   0.04508   0.04709   0.04709
     Eigenvalues ---    0.12005   0.12279   0.12279   0.12418   0.17636
     Eigenvalues ---    0.17636   0.30152   0.33306   0.33306   0.33550
     Eigenvalues ---    0.33550   0.34328   0.345331000.000001000.00000
     Eigenvalues --- 1000.000001000.000001000.000001000.000001000.00000
     Eigenvalues --- 1000.000001000.000001000.00000
 Angle between quadratic step and forces=  12.75 degrees.
 Linear search not attempted -- first point.
 Iteration  1 RMS(Cart)=  0.00015592 RMS(Int)=  0.00000000
 Iteration  2 RMS(Cart)=  0.00000000 RMS(Int)=  0.00000000
 ClnCor:  largest displacement from symmetrization is 3.87D-09 for atom     4.
 Variable       Old X    -DE/DX   Delta X   Delta X   Delta X     New X
                                 (Linear)    (Quad)   (Total)
    R1        2.89497   0.00011   0.00000   0.00033   0.00033   2.89530
    R2        2.07040   0.00001   0.00000   0.00002   0.00002   2.07042
    R3        2.07040   0.00001   0.00000   0.00002   0.00002   2.07042
    R4        2.07040   0.00001   0.00000   0.00002   0.00002   2.07042
    R5        2.07040   0.00001   0.00000   0.00002   0.00002   2.07042
    R6        2.07040   0.00001   0.00000   0.00002   0.00002   2.07042
    R7        2.07040   0.00001   0.00000   0.00002   0.00002   2.07042
    A1        1.94337   0.00002   0.00000   0.00008   0.00008   1.94345
    A2        1.94337   0.00002   0.00000   0.00008   0.00008   1.94345
    A3        1.94337   0.00002   0.00000   0.00008   0.00008   1.94345
    A4        1.87679  -0.00002   0.00000  -0.00008  -0.00008   1.87670
    A5        1.87679  -0.00002   0.00000  -0.00008  -0.00008   1.87670
    A6        1.87679  -0.00002   0.00000  -0.00008  -0.00008   1.87670
    A7        1.94337   0.00002   0.00000   0.00008   0.00008   1.94345
    A8        1.94337   0.00002   0.00000   0.00008   0.00008   1.94345
    A9        1.94337   0.00002   0.00000   0.00008   0.00008   1.94345
   A10        1.87679  -0.00002   0.00000  -0.00008  -0.00008   1.87670
   A11        1.87679  -0.00002   0.00000  -0.00008  -0.00008   1.87670
   A12        1.87679  -0.00002   0.00000  -0.00008  -0.00008   1.87670
    D1        1.04720  -0.00000   0.00000  -0.00000   0.00000   1.04720
    D2        3.14159  -0.00000   0.00000  -0.00000   0.00000   3.14159
    D3       -1.04720  -0.00000   0.00000   0.00000   0.00000  -1.04720
    D4        3.14159  -0.00000   0.00000  -0.00000   0.00000   3.14159
    D5       -1.04720   0.00000   0.00000   0.00000   0.00000  -1.04720
    D6        1.04720   0.00000   0.00000   0.00000   0.00000   1.04720
    D7       -1.04720  -0.00000   0.00000  -0.00000   0.00000  -1.04720
    D8        1.04720  -0.00000   0.00000  -0.00000   0.00000   1.04720
    D9        3.14159  -0.00000   0.00000  -0.00000   0.00000  -3.14159
         Item               Value     Threshold  Converged?
 Maximum Force            0.000110     0.000450     YES
 RMS     Force            0.000024     0.000300     YES
 Maximum Displacement     0.000321     0.001800     YES
 RMS     Displacement     0.000156     0.001200     YES
 Predicted change in Energy=-2.631421D-08
 Optimization completed.
    -- Stationary point found.
                           ----------------------------
                           !   Optimized Parameters   !
                           ! (Angstroms and Degrees)  !
 --------------------------                            --------------------------
 ! Name  Definition              Value          Derivative Info.                !
 --------------------------------------------------------------------------------
 ! R1    R(1,2)                  1.532          -DE/DX =    0.0001              !
 ! R2    R(1,3)                  1.0956         -DE/DX =    0.0                 !
 ! R3    R(1,4)                  1.0956         -DE/DX =    0.0                 !
 ! R4    R(1,5)                  1.0956         -DE/DX =    0.0                 !
 ! R5    R(2,6)                  1.0956         -DE/DX =    0.0                 !
 ! R6    R(2,7)                  1.0956         -DE/DX =    0.0                 !
 ! R7    R(2,8)                  1.0956         -DE/DX =    0.0                 !
 ! A1    A(2,1,3)              111.3472         -DE/DX =    0.0                 !
 ! A2    A(2,1,4)              111.3472         -DE/DX =    0.0                 !
 ! A3    A(2,1,5)              111.3472         -DE/DX =    0.0                 !
 ! A4    A(3,1,4)              107.5319         -DE/DX =    0.0                 !
 ! A5    A(3,1,5)              107.5319         -DE/DX =    0.0                 !
 ! A6    A(4,1,5)              107.5319         -DE/DX =    0.0                 !
 ! A7    A(1,2,6)              111.3472         -DE/DX =    0.0                 !
 ! A8    A(1,2,7)              111.3472         -DE/DX =    0.0                 !
 ! A9    A(1,2,8)              111.3472         -DE/DX =    0.0                 !
 ! A10   A(6,2,7)              107.5319         -DE/DX =    0.0                 !
 ! A11   A(6,2,8)              107.5319         -DE/DX =    0.0                 !
 ! A12   A(7,2,8)              107.5319         -DE/DX =    0.0                 !
 ! D1    D(3,1,2,6)             60.0            -DE/DX =    0.0                 !
 ! D2    D(3,1,2,7)            180.0            -DE/DX =    0.0                 !
 ! D3    D(3,1,2,8)            -60.0            -DE/DX =    0.0                 !
 ! D4    D(4,1,2,6)            180.0            -DE/DX =    0.0                 !
 ! D5    D(4,1,2,7)            -60.0            -DE/DX =    0.0                 !
 ! D6    D(4,1,2,8)             60.0            -DE/DX =    0.0                 !
 ! D7    D(5,1,2,6)            -60.0            -DE/DX =    0.0                 !
 ! D8    D(5,1,2,7)             60.0            -DE/DX =    0.0                 !
 ! D9    D(5,1,2,8)           -180.0            -DE/DX =    0.0                 !
 --------------------------------------------------------------------------------
 GradGradGradGradGradGradGradGradGradGradGradGradGradGradGradGradGradGrad

 Leave Link  103 at Fri Jun 21 18:06:28 2024, MaxMem=   33554432 cpu:       0.0
 (Enter /programs/64bit/g09/g09-gfortran/bin/l9999.exe)
 1\1\GINC-MOLMOD\Freq\RB3LYP\6-31+G(d,p)\C2H6\OSPITE\21-Jun-2024\0\\#P 
 Geom=AllCheck Guess=TCheck SCRF=Check GenChk RB3LYP/6-31+G(d,p) Freq\\
 etano\\0,1\C,0.,0.,-0.0659761319\C,0.,0.,1.4659761319\H,1.0204431484,0
 .,-0.4647984418\H,-0.5102215742,-0.8837296897,-0.4647984418\H,-0.51022
 15742,0.8837296897,-0.4647984418\H,0.5102215742,0.8837296897,1.8647984
 418\H,-1.0204431484,0.,1.8647984418\H,0.5102215742,-0.8837296897,1.864
 7984418\\Version=EM64L-G09RevA.02\State=1-A1G\HF=-79.8416414\RMSD=5.63
 4e-10\RMSF=1.874e-05\ZeroPoint=0.0746093\Thermal=0.0780952\Dipole=0.,0
 .,0.\DipoleDeriv=0.1056069,0.,-0.0000372,0.,0.1056249,0.,0.0000028,0.,
 0.0740818,0.1056069,0.,-0.0000372,0.,0.1056249,0.,0.0000028,0.,0.07408
 18,-0.14359,0.,0.1065327,0.,0.073182,0.,0.0627979,0.,-0.0246998,0.0189
 903,-0.0938634,-0.0532571,-0.093864,-0.0894002,-0.0922507,-0.0313996,-
 0.0543935,-0.0246954,0.0189903,0.0938634,-0.0532571,0.093864,-0.089400
 2,0.0922507,-0.0313996,0.0543935,-0.0246954,0.0189903,-0.0938634,-0.05
 32571,-0.093864,-0.0894002,-0.0922507,-0.0313996,-0.0543935,-0.0246954
 ,-0.14359,0.,0.1065327,0.,0.073182,0.,0.0627979,0.,-0.0246998,0.018990
 3,0.0938634,-0.0532571,0.093864,-0.0894002,0.0922507,-0.0313996,0.0543
 935,-0.0246954\Polar=24.5726474,0.,24.5729241,0.0000285,0.,27.3576454\
 PG=D03D [C3(C1.C1),3SGD(H2)]\NImag=0\\0.56655824,0.,0.56655588,-0.0000
 0060,0.,0.47011847,-0.07922325,0.,-0.00000194,0.56655824,0.,-0.0792290
 0,0.,0.,0.56655588,-0.00000194,0.,-0.19772871,-0.00000060,0.,0.4701184
 7,-0.27826756,0.,0.08592811,0.00242100,0.,-0.00096542,0.30048815,0.,-0
 .04867340,0.,0.,-0.00036793,0.,0.,0.04679305,0.08484585,0.,-0.07843642
 ,0.03254191,0.,-0.01236097,-0.09439399,0.,0.08764322,-0.10607259,-0.09
 941700,-0.04296407,0.00032916,0.00120804,0.00048336,-0.01370676,-0.025
 58507,-0.01103205,0.11021682,-0.09941682,-0.22086852,-0.07441540,0.001
 20781,0.00172451,0.00083642,0.00068506,0.00066927,0.00113070,0.1098532
 0,0.23706437,-0.04242236,-0.07347756,-0.07843622,-0.01627088,-0.028181
 90,-0.01236057,0.00453681,0.01011939,0.00375631,0.04719699,0.08174759,
 0.08764322,-0.10607259,0.09941700,-0.04296407,0.00032916,-0.00120804,0
 .00048336,-0.01370676,0.02558507,-0.01103205,0.00785728,-0.01313506,0.
 00649524,0.11021682,0.09941682,-0.22086852,0.07441540,-0.00120781,0.00
 172451,-0.00083642,-0.00068506,0.00066927,-0.00113070,0.01313506,-0.02
 089478,0.00898868,-0.10985320,0.23706437,-0.04242236,0.07347756,-0.078
 43622,-0.01627088,0.02818190,-0.01236057,0.00453681,-0.01011939,0.0037
 5631,0.00649524,-0.00898868,0.00375631,0.04719699,-0.08174759,0.087643
 22,0.00032916,0.00120804,0.00048336,-0.10607259,-0.09941700,-0.0429640
 7,0.00051462,0.00052701,-0.00016276,0.00111662,0.00036098,0.00030166,-
 0.00025552,-0.00008237,-0.00031805,0.11021682,0.00120781,0.00172451,0.
 00083642,-0.09941682,-0.22086852,-0.07441540,0.00036227,0.00000119,-0.
 00046123,0.00036098,0.00153345,0.00052249,0.00008237,0.00077133,-0.000
 37157,0.10985320,0.23706437,-0.01627088,-0.02818190,-0.01236057,-0.042
 42236,-0.07347756,-0.07843622,0.00048081,-0.00008966,0.00141419,0.0003
 0166,0.00052249,-0.00718682,-0.00031805,0.00037157,0.00141419,0.047196
 99,0.08174759,0.08764322,0.00242100,0.,-0.00096542,-0.27826756,0.,0.08
 592811,0.00174186,0.,-0.00060332,0.00051462,0.00036227,0.00048081,0.00
 051462,-0.00036227,0.00048081,-0.01370676,0.00068506,0.00453681,0.3004
 8815,0.,-0.00036793,0.,0.,-0.04867340,0.,0.,0.00090821,0.,0.00052701,0
 .00000119,-0.00008966,-0.00052701,0.00000119,0.00008966,-0.02558507,0.
 00066927,0.01011939,0.,0.04679305,0.03254191,0.,-0.01236097,0.08484585
 ,0.,-0.07843642,-0.00060332,0.,-0.00718682,-0.00016276,-0.00046123,0.0
 0141419,-0.00016276,0.00046123,0.00141419,-0.01103205,0.00113070,0.003
 75631,-0.09439399,0.,0.08764322,0.00032916,-0.00120804,0.00048336,-0.1
 0607259,0.09941700,-0.04296407,0.00051462,-0.00052701,-0.00016276,-0.0
 0025552,0.00008237,-0.00031805,0.00111662,-0.00036098,0.00030166,0.007
 85728,-0.01313506,0.00649524,-0.01370676,0.02558507,-0.01103205,0.1102
 1682,-0.00120781,0.00172451,-0.00083642,0.09941682,-0.22086852,0.07441
 540,-0.00036227,0.00000119,0.00046123,-0.00008237,0.00077133,0.0003715
 7,-0.00036098,0.00153345,-0.00052249,0.01313506,-0.02089478,0.00898868
 ,-0.00068506,0.00066927,-0.00113070,-0.10985320,0.23706437,-0.01627088
 ,0.02818190,-0.01236057,-0.04242236,0.07347756,-0.07843622,0.00048081,
 0.00008966,0.00141419,-0.00031805,-0.00037157,0.00141419,0.00030166,-0
 .00052249,-0.00718682,0.00649524,-0.00898868,0.00375631,0.00453681,-0.
 01011939,0.00375631,0.04719699,-0.08174759,0.08764322\\0.,0.,0.0000573
 2,0.,0.,-0.00005732,-0.00000078,0.,0.00001759,0.00000039,0.00000068,0.
 00001759,0.00000039,-0.00000068,0.00001759,-0.00000039,-0.00000068,-0.
 00001759,0.00000078,0.,-0.00001759,-0.00000039,0.00000068,-0.00001759\
 \\@


 THEREFORE SHALL EVIL COME UPON THEE...
 THOU SHALT NOT KNOW FROM WHENCE IT RISETH...
 AND MISCHIEF SHALL FALL UPON THEE...
 THOU SHALT NOT BE ABLE TO PUT IT OFF...
 AND DESOLATION SHALL COME UPON THEE SUDDENLY...
 WHICH THOU SHALT NOT KNOW...

                                         ISAIAH 47.11
 Job cpu time:  0 days  0 hours  0 minutes 13.3 seconds.
 File lengths (MBytes):  RWF=      5 Int=      0 D2E=      0 Chk=      1 Scr=      1
 Normal termination of Gaussian 09 at Fri Jun 21 18:06:28 2024.
