 Entering Gaussian System, Link 0=g09
 Input=c3h8.com
 Output=c3h8.log
 Initial command:
 /programs/64bit/g09/g09-gfortran/bin/l1.exe /data/scratch/Gau-4673.inp -scrdir=/data/scratch/
 Entering Link 1 = /programs/64bit/g09/g09-gfortran/bin/l1.exe PID=      4674.
  
 Copyright (c) 1988,1990,1992,1993,1995,1998,2003,2009, Gaussian, Inc.
                  All Rights Reserved.
  
 This is part of the Gaussian(R) 09 program.  It is based on
 the Gaussian(R) 03 system (copyright 2003, Gaussian, Inc.),
 the Gaussian(R) 98 system (copyright 1998, Gaussian, Inc.),
 the Gaussian(R) 94 system (copyright 1995, Gaussian, Inc.),
 the Gaussian 92(TM) system (copyright 1992, Gaussian, Inc.),
 the Gaussian 90(TM) system (copyright 1990, Gaussian, Inc.),
 the Gaussian 88(TM) system (copyright 1988, Gaussian, Inc.),
 the Gaussian 86(TM) system (copyright 1986, Carnegie Mellon
 University), and the Gaussian 82(TM) system (copyright 1983,
 Carnegie Mellon University). Gaussian is a federally registered
 trademark of Gaussian, Inc.
  
 This software contains proprietary and confidential information,
 including trade secrets, belonging to Gaussian, Inc.
  
 This software is provided under written license and may be
 used, copied, transmitted, or stored only in accord with that
 written license.
  
 The following legend is applicable only to US Government
 contracts under FAR:
  
                    RESTRICTED RIGHTS LEGEND
  
 Use, reproduction and disclosure by the US Government is
 subject to restrictions as set forth in subparagraphs (a)
 and (c) of the Commercial Computer Software - Restricted
 Rights clause in FAR 52.227-19.
  
 Gaussian, Inc.
 340 Quinnipiac St., Bldg. 40, Wallingford CT 06492
  
  
 ---------------------------------------------------------------
 Warning -- This program may not be used in any manner that
 competes with the business of Gaussian, Inc. or will provide
 assistance to any competitor of Gaussian, Inc.  The licensee
 of this program is prohibited from giving any competitor of
 Gaussian, Inc. access to this program.  By using this program,
 the user acknowledges that Gaussian, Inc. is engaged in the
 business of creating and licensing software in the field of
 computational chemistry and represents and warrants to the
 licensee that it is not a competitor of Gaussian, Inc. and that
 it will not use this program in any manner prohibited above.
 ---------------------------------------------------------------
  

 Cite this work as:
 Gaussian 09, Revision A.02,
 M. J. Frisch, G. W. Trucks, H. B. Schlegel, G. E. Scuseria, 
 M. A. Robb, J. R. Cheeseman, G. Scalmani, V. Barone, B. Mennucci, 
 G. A. Petersson, H. Nakatsuji, M. Caricato, X. Li, H. P. Hratchian, 
 A. F. Izmaylov, J. Bloino, G. Zheng, J. L. Sonnenberg, M. Hada, 
 M. Ehara, K. Toyota, R. Fukuda, J. Hasegawa, M. Ishida, T. Nakajima, 
 Y. Honda, O. Kitao, H. Nakai, T. Vreven, J. A. Montgomery, Jr., 
 J. E. Peralta, F. Ogliaro, M. Bearpark, J. J. Heyd, E. Brothers, 
 K. N. Kudin, V. N. Staroverov, R. Kobayashi, J. Normand, 
 K. Raghavachari, A. Rendell, J. C. Burant, S. S. Iyengar, J. Tomasi, 
 M. Cossi, N. Rega, J. M. Millam, M. Klene, J. E. Knox, J. B. Cross, 
 V. Bakken, C. Adamo, J. Jaramillo, R. Gomperts, R. E. Stratmann, 
 O. Yazyev, A. J. Austin, R. Cammi, C. Pomelli, J. W. Ochterski, 
 R. L. Martin, K. Morokuma, V. G. Zakrzewski, G. A. Voth, 
 P. Salvador, J. J. Dannenberg, S. Dapprich, A. D. Daniels, 
 O. Farkas, J. B. Foresman, J. V. Ortiz, J. Cioslowski, 
 and D. J. Fox, Gaussian, Inc., Wallingford CT, 2009.
 
 ******************************************
 Gaussian 09:  EM64L-G09RevA.02 11-Jun-2009
                21-Jun-2024 
 ******************************************
 %chk=tmp
 ------------------------
 #p B3LYP/6-31+g(d,p) opt
 ------------------------
 1/14=-1,18=20,19=15,26=3,38=1/1,3;
 2/9=110,12=2,17=6,18=5,40=1/2;
 3/5=1,6=6,7=111,11=2,16=1,25=1,30=1,71=1,74=-5/1,2,3;
 4//1;
 5/5=2,38=5/2;
 6/7=2,8=2,9=2,10=2,28=1/1;
 7//1,2,3,16;
 1/14=-1,18=20,19=15/3(2);
 2/9=110/2;
 99//99;
 2/9=110/2;
 3/5=1,6=6,7=111,11=2,16=1,25=1,30=1,71=1,74=-5/1,2,3;
 4/5=5,16=3/1;
 5/5=2,38=5/2;
 7//1,2,3,16;
 1/14=-1,18=20,19=15/3(-5);
 2/9=110/2;
 6/7=2,8=2,9=2,10=2,19=2,28=1/1;
 99/9=1/99;
 Leave Link    1 at Fri Jun 21 19:14:00 2024, MaxMem=          0 cpu:       0.0
 (Enter /programs/64bit/g09/g09-gfortran/bin/l101.exe)
 -------
 propano
 -------
 Symbolic Z-matrix:
 Charge =  0 Multiplicity = 1
 C1
 C2                   1    d1
 H3                   1    d2       2    a1
 H4                   1    d3       2    a2       3    t1       0
 H5                   1    d4       2    a3       3    t2       0
 H6                   2    d5       1    a4       3    t3       0
 H7                   2    d6       1    a5       6    t4       0
 C8                   2    d7       1    a6       7    t5       0
 H9                   8    d8       2    a7       6    t6       0
 H10                  8    d9       2    a8       9    t7       0
 H11                  8    d10      2    a9       9    t8       0
       Variables:
  d1                    1.4                      
  d2                    1.1                      
  d3                    1.1                      
  d4                    1.1                      
  d5                    1.1                      
  d6                    1.1                      
  d7                    1.4                      
  d8                    1.1                      
  d9                    1.1                      
  d10                   1.1                      
  a1                  109.                       
  a2                  109.                       
  a3                  109.                       
  a4                  109.                       
  a5                  109.                       
  a6                  120.                       
  a7                  109.                       
  a8                  109.                       
  a9                  109.                       
  t1                  120.                       
  t2                 -120.                       
  t3                   60.                       
  t4                  120.                       
  t5                  109.                       
  t6                  -60.                       
  t7                  120.                       
  t8                 -120.                       
 
 NAtoms=     11 NQM=     11 NQMF=      0 NMic=      0 NMicF=      0 NTot=     11.
                    Isotopes and Nuclear Properties:
 (Nuclear quadrupole moments (NQMom) in fm**2, nuclear magnetic moments (NMagM)
  in nuclear magnetons)

  Atom         1           2           3           4           5           6           7           8           9          10
 IAtWgt=          12          12           1           1           1           1           1          12           1           1
 AtmWgt=  12.0000000  12.0000000   1.0078250   1.0078250   1.0078250   1.0078250   1.0078250  12.0000000   1.0078250   1.0078250
 NucSpn=           0           0           1           1           1           1           1           0           1           1
 AtZEff=   0.0000000   0.0000000   0.0000000   0.0000000   0.0000000   0.0000000   0.0000000   0.0000000   0.0000000   0.0000000
 NQMom=    0.0000000   0.0000000   0.0000000   0.0000000   0.0000000   0.0000000   0.0000000   0.0000000   0.0000000   0.0000000
 NMagM=    0.0000000   0.0000000   2.7928460   2.7928460   2.7928460   2.7928460   2.7928460   0.0000000   2.7928460   2.7928460

  Atom        11
 IAtWgt=           1
 AtmWgt=   1.0078250
 NucSpn=           1
 AtZEff=   0.0000000
 NQMom=    0.0000000
 NMagM=    2.7928460
 Leave Link  101 at Fri Jun 21 19:14:00 2024, MaxMem=   33554432 cpu:       0.2
 (Enter /programs/64bit/g09/g09-gfortran/bin/l103.exe)

 GradGradGradGradGradGradGradGradGradGradGradGradGradGradGradGradGradGrad
 Berny optimization.
 Initialization pass.
                           ----------------------------
                           !    Initial Parameters    !
                           ! (Angstroms and Degrees)  !
 --------------------------                            --------------------------
 ! Name  Definition              Value          Derivative Info.                !
 --------------------------------------------------------------------------------
 ! R1    R(1,2)                  1.4            estimate D2E/DX2                !
 ! R2    R(1,3)                  1.1            estimate D2E/DX2                !
 ! R3    R(1,4)                  1.1            estimate D2E/DX2                !
 ! R4    R(1,5)                  1.1            estimate D2E/DX2                !
 ! R5    R(2,6)                  1.1            estimate D2E/DX2                !
 ! R6    R(2,7)                  1.1            estimate D2E/DX2                !
 ! R7    R(2,8)                  1.4            estimate D2E/DX2                !
 ! R8    R(8,9)                  1.1            estimate D2E/DX2                !
 ! R9    R(8,10)                 1.1            estimate D2E/DX2                !
 ! R10   R(8,11)                 1.1            estimate D2E/DX2                !
 ! A1    A(2,1,3)              109.0            estimate D2E/DX2                !
 ! A2    A(2,1,4)              109.0            estimate D2E/DX2                !
 ! A3    A(2,1,5)              109.0            estimate D2E/DX2                !
 ! A4    A(3,1,4)              109.9383         estimate D2E/DX2                !
 ! A5    A(3,1,5)              109.9383         estimate D2E/DX2                !
 ! A6    A(4,1,5)              109.9383         estimate D2E/DX2                !
 ! A7    A(1,2,6)              109.0            estimate D2E/DX2                !
 ! A8    A(1,2,7)              109.0            estimate D2E/DX2                !
 ! A9    A(1,2,8)              120.0            estimate D2E/DX2                !
 ! A10   A(6,2,7)              109.9383         estimate D2E/DX2                !
 ! A11   A(6,2,8)              111.9888         estimate D2E/DX2                !
 ! A12   A(7,2,8)               95.9583         estimate D2E/DX2                !
 ! A13   A(2,8,9)              109.0            estimate D2E/DX2                !
 ! A14   A(2,8,10)             109.0            estimate D2E/DX2                !
 ! A15   A(2,8,11)             109.0            estimate D2E/DX2                !
 ! A16   A(9,8,10)             109.9383         estimate D2E/DX2                !
 ! A17   A(9,8,11)             109.9383         estimate D2E/DX2                !
 ! A18   A(10,8,11)            109.9383         estimate D2E/DX2                !
 ! D1    D(3,1,2,6)             60.0            estimate D2E/DX2                !
 ! D2    D(3,1,2,7)            180.0            estimate D2E/DX2                !
 ! D3    D(3,1,2,8)            -71.0            estimate D2E/DX2                !
 ! D4    D(4,1,2,6)            180.0            estimate D2E/DX2                !
 ! D5    D(4,1,2,7)            -60.0            estimate D2E/DX2                !
 ! D6    D(4,1,2,8)             49.0            estimate D2E/DX2                !
 ! D7    D(5,1,2,6)            -60.0            estimate D2E/DX2                !
 ! D8    D(5,1,2,7)             60.0            estimate D2E/DX2                !
 ! D9    D(5,1,2,8)            169.0            estimate D2E/DX2                !
 ! D10   D(1,2,8,9)             69.6844         estimate D2E/DX2                !
 ! D11   D(1,2,8,10)          -170.3156         estimate D2E/DX2                !
 ! D12   D(1,2,8,11)           -50.3156         estimate D2E/DX2                !
 ! D13   D(6,2,8,9)            -60.0            estimate D2E/DX2                !
 ! D14   D(6,2,8,10)            60.0            estimate D2E/DX2                !
 ! D15   D(6,2,8,11)           180.0            estimate D2E/DX2                !
 ! D16   D(7,2,8,9)           -174.3243         estimate D2E/DX2                !
 ! D17   D(7,2,8,10)           -54.3243         estimate D2E/DX2                !
 ! D18   D(7,2,8,11)            65.6757         estimate D2E/DX2                !
 --------------------------------------------------------------------------------
 Trust Radius=3.00D-01 FncErr=1.00D-07 GrdErr=1.00D-06
 Number of steps in this run=  56 maximum allowed number of steps= 100.
 GradGradGradGradGradGradGradGradGradGradGradGradGradGradGradGradGradGrad

 Leave Link  103 at Fri Jun 21 19:14:00 2024, MaxMem=   33554432 cpu:       0.0
 (Enter /programs/64bit/g09/g09-gfortran/bin/l202.exe)
                          Input orientation:                          
 ---------------------------------------------------------------------
 Center     Atomic      Atomic             Coordinates (Angstroms)
 Number     Number       Type             X           Y           Z
 ---------------------------------------------------------------------
      1          6           0        0.000000    0.000000    0.000000
      2          6           0        0.000000    0.000000    1.400000
      3          1           0        1.040070    0.000000   -0.358125
      4          1           0       -0.520035   -0.900727   -0.358125
      5          1           0       -0.520035    0.900727   -0.358125
      6          1           0        0.520035    0.900727    1.758125
      7          1           0       -1.040070    0.000000    1.758125
      8          6           0        0.394730   -1.146380    2.100000
      9          1           0        1.476718   -1.292793    1.966339
     10          1           0        0.163379   -1.011895    3.166954
     11          1           0       -0.152986   -2.014198    1.703895
 ---------------------------------------------------------------------
                    Distance matrix (angstroms):
                    1          2          3          4          5
     1  C    0.000000
     2  C    1.400000   0.000000
     3  H    1.100000   2.042731   0.000000
     4  H    1.100000   2.042731   1.801455   0.000000
     5  H    1.100000   2.042731   1.801455   1.801455   0.000000
     6  H    2.042731   1.100000   2.358020   2.967406   2.358020
     7  H    2.042731   1.100000   2.967406   2.358020   2.358020
     8  C    2.424871   1.400000   2.788015   2.634297   3.327135
     9  H    2.778219   2.042731   2.695386   3.089316   3.768513
    10  H    3.328697   2.042731   3.770769   3.592436   4.068336
    11  H    2.642661   2.042731   3.119664   2.372018   3.589351
                    6          7          8          9         10
     6  H    0.000000
     7  H    1.801455   0.000000
     8  C    2.079238   1.868079   0.000000
     9  H    2.402109   2.837057   1.100000   0.000000
    10  H    2.402109   2.111166   1.100000   1.801455   0.000000
    11  H    2.992104   2.201557   1.100000   1.801455   1.801455
                   11
    11  H    0.000000
 Stoichiometry    C3H8
 Framework group  C1[X(C3H8)]
 Deg. of freedom    27
 Full point group                 C1      NOp   1
 Largest Abelian subgroup         C1      NOp   1
 Largest concise Abelian subgroup C1      NOp   1
                         Standard orientation:                         
 ---------------------------------------------------------------------
 Center     Atomic      Atomic             Coordinates (Angstroms)
 Number     Number       Type             X           Y           Z
 ---------------------------------------------------------------------
      1          6           0        1.217531   -0.217110    0.003791
      2          6           0        0.002421    0.478230    0.000331
      3          1           0        1.365966   -0.673844    0.993418
      4          1           0        1.184867   -0.999087   -0.769154
      5          1           0        2.034247    0.487991   -0.210234
      6          1           0        0.035085    1.260207    0.773276
      7          1           0       -0.146014    0.934964   -0.989296
      8          6           0       -1.207281   -0.226258    0.018174
      9          1           0       -1.329243   -0.703608    1.001669
     10          1           0       -2.033795    0.476713   -0.162671
     11          1           0       -1.187141   -0.992510   -0.770782
 ---------------------------------------------------------------------
 Rotational constants (GHZ):     34.3941945      9.1884025      8.4276291
 Leave Link  202 at Fri Jun 21 19:14:00 2024, MaxMem=   33554432 cpu:       0.0
 (Enter /programs/64bit/g09/g09-gfortran/bin/l301.exe)
 Standard basis: 6-31+G(d,p) (6D, 7F)
 Ernie: Thresh=  0.10000D-02 Tol=  0.10000D-05 Strict=F.
 There are    97 symmetry adapted basis functions of A   symmetry.
 Integral buffers will be    131072 words long.
 Raffenetti 2 integral format.
 Two-electron integral symmetry is turned on.
    97 basis functions,   152 primitive gaussians,    97 cartesian basis functions
    13 alpha electrons       13 beta electrons
       nuclear repulsion energy        86.4917154040 Hartrees.
 IExCor=  402 DFT=T Ex+Corr=B3LYP ExCW=0 ScaHFX=  0.200000
 ScaDFX=  0.800000  0.720000  1.000000  0.810000 ScalE2=  1.000000  1.000000
 IRadAn=      0 IRanWt=     -1 IRanGd=            0 ICorTp=0
 NAtoms=   11 NActive=   11 NUniq=   11 SFac= 7.50D-01 NAtFMM=   80 NAOKFM=F Big=F
 Leave Link  301 at Fri Jun 21 19:14:00 2024, MaxMem=   33554432 cpu:       0.0
 (Enter /programs/64bit/g09/g09-gfortran/bin/l302.exe)
 NPDir=0 NMtPBC=     1 NCelOv=     1 NCel=       1 NClECP=     1 NCelD=      1
         NCelK=      1 NCelE2=     1 NClLst=     1 CellRange=     0.0.
 One-electron integrals computed using PRISM.
 NBasis=    97 RedAO= T  NBF=    97
 NBsUse=    97 1.00D-06 NBFU=    97
 Precomputing XC quadrature grid using
 IXCGrd= 2 IRadAn=           0 IRanWt=          -1 IRanGd=           0 AccXCQ= 1.00D-10.
 NRdTot=     703 NPtTot=       89482 NUsed=       94559 NTot=       94591
 NSgBfM=    97    97    97    97    97 NAtAll=    11    11.
 Leave Link  302 at Fri Jun 21 19:14:00 2024, MaxMem=   33554432 cpu:       0.1
 (Enter /programs/64bit/g09/g09-gfortran/bin/l303.exe)
 DipDrv:  MaxL=1.
 Leave Link  303 at Fri Jun 21 19:14:00 2024, MaxMem=   33554432 cpu:       0.0
 (Enter /programs/64bit/g09/g09-gfortran/bin/l401.exe)
 Harris functional with IExCor=  402 diagonalized for initial guess.
 ExpMin= 4.38D-02 ExpMax= 3.05D+03 ExpMxC= 4.57D+02 IAcc=2 IRadAn=         0 AccDes= 0.00D+00
 HarFok:  IExCor=  402 AccDes= 0.00D+00 IRadAn=         0 IDoV= 1
 ScaDFX=  1.000000  1.000000  1.000000  1.000000
 FoFCou: FMM=F IPFlag=           0 FMFlag=      100000 FMFlg1=           0
         NFxFlg=           0 DoJE=T BraDBF=F KetDBF=T FulRan=T
         Omega=  0.000000  0.000000  1.000000  0.000000  0.000000 ICntrl=     500 IOpCl=  0
         NMat0=    1 NMatS0=    1 NMatT0=    0 NMatD0=    1 NMtDS0=    0 NMtDT0=    0
         I1Cent=           4 NGrid=           0.
 Petite list used in FoFCou.
 Harris En= -119.215752666097    
 Initial guess orbital symmetries:
       Occupied  (A) (A) (A) (A) (A) (A) (A) (A) (A) (A) (A) (A)
                 (A)
       Virtual   (A) (A) (A) (A) (A) (A) (A) (A) (A) (A) (A) (A)
                 (A) (A) (A) (A) (A) (A) (A) (A) (A) (A) (A) (A)
                 (A) (A) (A) (A) (A) (A) (A) (A) (A) (A) (A) (A)
                 (A) (A) (A) (A) (A) (A) (A) (A) (A) (A) (A) (A)
                 (A) (A) (A) (A) (A) (A) (A) (A) (A) (A) (A) (A)
                 (A) (A) (A) (A) (A) (A) (A) (A) (A) (A) (A) (A)
                 (A) (A) (A) (A) (A) (A) (A) (A) (A) (A) (A) (A)
 The electronic state of the initial guess is 1-A.
 Leave Link  401 at Fri Jun 21 19:14:01 2024, MaxMem=   33554432 cpu:       1.5
 (Enter /programs/64bit/g09/g09-gfortran/bin/l502.exe)
 Closed shell SCF:
 Requested convergence on RMS density matrix=1.00D-08 within 128 cycles.
 Requested convergence on MAX density matrix=1.00D-06.
 Requested convergence on             energy=1.00D-06.
 No special actions if energy rises.
 Using DIIS extrapolation, IDIIS=  1040.
 Integral symmetry usage will be decided dynamically.
        94447 words used for storage of precomputed grid.
 Keep R1 ints in memory in canonical form, NReq=12357801.
 IEnd=      142142 IEndB=      142142 NGot=    33554432 MDV=    22140528
 LenX=    22140528 LenY=    22130678
 Symmetry not used in FoFDir.
 MinBra= 0 MaxBra= 2 Meth= 1.
 IRaf=       0 NMat=   1 IRICut=       1 DoRegI=T DoRafI=F ISym2E= 0 JSym2E=0.

 Cycle   1  Pass 1  IDiag  1:
 E= -118.900759972471    
 DIIS: error= 4.10D-02 at cycle   1 NSaved=   1.
 NSaved= 1 IEnMin= 1 EnMin= -118.900759972471     IErMin= 1 ErrMin= 4.10D-02
 ErrMax= 4.10D-02 EMaxC= 1.00D-01 BMatC= 2.02D-01 BMatP= 2.02D-01
 IDIUse=3 WtCom= 5.90D-01 WtEn= 4.10D-01
 Coeff-Com:  0.100D+01
 Coeff-En:   0.100D+01
 Coeff:      0.100D+01
 Gap=     0.228 Goal=   None    Shift=    0.000
 GapD=    0.228 DampG=1.000 DampE=0.500 DampFc=0.5000 IDamp=-1.
 Damping current iteration by 5.00D-01
 RMSDP=1.30D-02 MaxDP=1.88D-01              OVMax= 2.49D-01

 Cycle   2  Pass 1  IDiag  1:
 E= -118.983317270418     Delta-E=       -0.082557297947 Rises=F Damp=T
 DIIS: error= 1.26D-02 at cycle   2 NSaved=   2.
 NSaved= 2 IEnMin= 2 EnMin= -118.983317270418     IErMin= 2 ErrMin= 1.26D-02
 ErrMax= 1.26D-02 EMaxC= 1.00D-01 BMatC= 1.01D-02 BMatP= 2.02D-01
 IDIUse=3 WtCom= 8.74D-01 WtEn= 1.26D-01
 Coeff-Com:  0.142D+00 0.858D+00
 Coeff-En:   0.256D+00 0.744D+00
 Coeff:      0.156D+00 0.844D+00
 Gap=     0.344 Goal=   None    Shift=    0.000
 RMSDP=3.23D-03 MaxDP=8.23D-02 DE=-8.26D-02 OVMax= 1.50D-01

 Cycle   3  Pass 1  IDiag  1:
 E= -119.124356322089     Delta-E=       -0.141039051671 Rises=F Damp=F
 DIIS: error= 2.68D-03 at cycle   3 NSaved=   3.
 NSaved= 3 IEnMin= 3 EnMin= -119.124356322089     IErMin= 3 ErrMin= 2.68D-03
 ErrMax= 2.68D-03 EMaxC= 1.00D-01 BMatC= 6.34D-04 BMatP= 1.01D-02
 IDIUse=3 WtCom= 9.73D-01 WtEn= 2.68D-02
 Coeff-Com:  0.179D-01 0.162D+00 0.820D+00
 Coeff-En:   0.000D+00 0.000D+00 0.100D+01
 Coeff:      0.174D-01 0.157D+00 0.825D+00
 Gap=     0.315 Goal=   None    Shift=    0.000
 RMSDP=5.34D-04 MaxDP=8.55D-03 DE=-1.41D-01 OVMax= 7.63D-03

 Cycle   4  Pass 1  IDiag  1:
 E= -119.124767772529     Delta-E=       -0.000411450440 Rises=F Damp=F
 DIIS: error= 1.13D-03 at cycle   4 NSaved=   4.
 NSaved= 4 IEnMin= 4 EnMin= -119.124767772529     IErMin= 4 ErrMin= 1.13D-03
 ErrMax= 1.13D-03 EMaxC= 1.00D-01 BMatC= 1.95D-04 BMatP= 6.34D-04
 IDIUse=3 WtCom= 9.89D-01 WtEn= 1.13D-02
 Coeff-Com: -0.253D-02 0.920D-02 0.355D+00 0.638D+00
 Coeff-En:   0.000D+00 0.000D+00 0.171D+00 0.829D+00
 Coeff:     -0.251D-02 0.910D-02 0.353D+00 0.641D+00
 Gap=     0.316 Goal=   None    Shift=    0.000
 RMSDP=1.44D-04 MaxDP=3.26D-03 DE=-4.11D-04 OVMax= 3.27D-03

 Cycle   5  Pass 1  IDiag  1:
 E= -119.124941015921     Delta-E=       -0.000173243392 Rises=F Damp=F
 DIIS: error= 2.12D-04 at cycle   5 NSaved=   5.
 NSaved= 5 IEnMin= 5 EnMin= -119.124941015921     IErMin= 5 ErrMin= 2.12D-04
 ErrMax= 2.12D-04 EMaxC= 1.00D-01 BMatC= 7.06D-06 BMatP= 1.95D-04
 IDIUse=3 WtCom= 9.98D-01 WtEn= 2.12D-03
 Coeff-Com: -0.105D-02-0.366D-02 0.941D-01 0.243D+00 0.668D+00
 Coeff-En:   0.000D+00 0.000D+00 0.000D+00 0.000D+00 0.100D+01
 Coeff:     -0.105D-02-0.365D-02 0.939D-01 0.243D+00 0.668D+00
 Gap=     0.316 Goal=   None    Shift=    0.000
 RMSDP=3.49D-05 MaxDP=5.56D-04 DE=-1.73D-04 OVMax= 6.72D-04

 Cycle   6  Pass 1  IDiag  1:
 E= -119.124947205308     Delta-E=       -0.000006189387 Rises=F Damp=F
 DIIS: error= 3.61D-05 at cycle   6 NSaved=   6.
 NSaved= 6 IEnMin= 6 EnMin= -119.124947205308     IErMin= 6 ErrMin= 3.61D-05
 ErrMax= 3.61D-05 EMaxC= 1.00D-01 BMatC= 1.06D-07 BMatP= 7.06D-06
 IDIUse=1 WtCom= 1.00D+00 WtEn= 0.00D+00
 Coeff-Com:  0.689D-04-0.121D-02 0.156D-01 0.473D-01 0.172D+00 0.766D+00
 Coeff:      0.689D-04-0.121D-02 0.156D-01 0.473D-01 0.172D+00 0.766D+00
 Gap=     0.316 Goal=   None    Shift=    0.000
 RMSDP=9.46D-06 MaxDP=1.33D-04 DE=-6.19D-06 OVMax= 1.05D-04

 Cycle   7  Pass 1  IDiag  1:
 E= -119.124947325976     Delta-E=       -0.000000120668 Rises=F Damp=F
 DIIS: error= 6.38D-06 at cycle   7 NSaved=   7.
 NSaved= 7 IEnMin= 7 EnMin= -119.124947325976     IErMin= 7 ErrMin= 6.38D-06
 ErrMax= 6.38D-06 EMaxC= 1.00D-01 BMatC= 3.53D-09 BMatP= 1.06D-07
 IDIUse=1 WtCom= 1.00D+00 WtEn= 0.00D+00
 Coeff-Com:  0.101D-03-0.149D-03-0.594D-03-0.982D-04 0.610D-02 0.165D+00
 Coeff-Com:  0.830D+00
 Coeff:      0.101D-03-0.149D-03-0.594D-03-0.982D-04 0.610D-02 0.165D+00
 Coeff:      0.830D+00
 Gap=     0.316 Goal=   None    Shift=    0.000
 RMSDP=1.54D-06 MaxDP=2.27D-05 DE=-1.21D-07 OVMax= 1.92D-05

 Cycle   8  Pass 1  IDiag  1:
 E= -119.124947329886     Delta-E=       -0.000000003911 Rises=F Damp=F
 DIIS: error= 1.23D-06 at cycle   8 NSaved=   8.
 NSaved= 8 IEnMin= 8 EnMin= -119.124947329886     IErMin= 8 ErrMin= 1.23D-06
 ErrMax= 1.23D-06 EMaxC= 1.00D-01 BMatC= 2.95D-10 BMatP= 3.53D-09
 IDIUse=1 WtCom= 1.00D+00 WtEn= 0.00D+00
 Coeff-Com:  0.345D-04-0.387D-04-0.521D-03-0.919D-03-0.105D-02 0.477D-01
 Coeff-Com:  0.331D+00 0.624D+00
 Coeff:      0.345D-04-0.387D-04-0.521D-03-0.919D-03-0.105D-02 0.477D-01
 Coeff:      0.331D+00 0.624D+00
 Gap=     0.316 Goal=   None    Shift=    0.000
 RMSDP=2.63D-07 MaxDP=3.96D-06 DE=-3.91D-09 OVMax= 5.20D-06

 Cycle   9  Pass 1  IDiag  1:
 E= -119.124947330140     Delta-E=       -0.000000000253 Rises=F Damp=F
 DIIS: error= 4.19D-07 at cycle   9 NSaved=   9.
 NSaved= 9 IEnMin= 9 EnMin= -119.124947330140     IErMin= 9 ErrMin= 4.19D-07
 ErrMax= 4.19D-07 EMaxC= 1.00D-01 BMatC= 3.47D-11 BMatP= 2.95D-10
 IDIUse=1 WtCom= 1.00D+00 WtEn= 0.00D+00
 Coeff-Com: -0.167D-05 0.104D-05-0.892D-04-0.243D-03-0.911D-03-0.229D-02
 Coeff-Com:  0.233D-01 0.269D+00 0.712D+00
 Coeff:     -0.167D-05 0.104D-05-0.892D-04-0.243D-03-0.911D-03-0.229D-02
 Coeff:      0.233D-01 0.269D+00 0.712D+00
 Gap=     0.316 Goal=   None    Shift=    0.000
 RMSDP=8.61D-08 MaxDP=1.10D-06 DE=-2.53D-10 OVMax= 1.38D-06

 Cycle  10  Pass 1  IDiag  1:
 E= -119.124947330175     Delta-E=       -0.000000000035 Rises=F Damp=F
 DIIS: error= 1.27D-08 at cycle  10 NSaved=  10.
 NSaved=10 IEnMin=10 EnMin= -119.124947330175     IErMin=10 ErrMin= 1.27D-08
 ErrMax= 1.27D-08 EMaxC= 1.00D-01 BMatC= 1.66D-14 BMatP= 3.47D-11
 IDIUse=1 WtCom= 1.00D+00 WtEn= 0.00D+00
 Coeff-Com: -0.266D-06 0.325D-06 0.110D-05-0.573D-05-0.596D-04-0.377D-03
 Coeff-Com: -0.993D-03 0.270D-02 0.170D-01 0.982D+00
 Coeff:     -0.266D-06 0.325D-06 0.110D-05-0.573D-05-0.596D-04-0.377D-03
 Coeff:     -0.993D-03 0.270D-02 0.170D-01 0.982D+00
 Gap=     0.316 Goal=   None    Shift=    0.000
 RMSDP=6.30D-09 MaxDP=1.03D-07 DE=-3.52D-11 OVMax= 6.04D-08

 SCF Done:  E(RB3LYP) =  -119.124947330     A.U. after   10 cycles
             Convg  =    0.6301D-08             -V/T =  2.0060
 KE= 1.184191734422D+02 PE=-4.477512002409D+02 EE= 1.237153640645D+02
 Leave Link  502 at Fri Jun 21 19:14:17 2024, MaxMem=   33554432 cpu:      15.8
 (Enter /programs/64bit/g09/g09-gfortran/bin/l601.exe)
 Copying SCF densities to generalized density rwf, IOpCl= 0 IROHF=0.

 **********************************************************************

            Population analysis using the SCF density.

 **********************************************************************

 Orbital symmetries:
       Occupied  (A) (A) (A) (A) (A) (A) (A) (A) (A) (A) (A) (A)
                 (A)
       Virtual   (A) (A) (A) (A) (A) (A) (A) (A) (A) (A) (A) (A)
                 (A) (A) (A) (A) (A) (A) (A) (A) (A) (A) (A) (A)
                 (A) (A) (A) (A) (A) (A) (A) (A) (A) (A) (A) (A)
                 (A) (A) (A) (A) (A) (A) (A) (A) (A) (A) (A) (A)
                 (A) (A) (A) (A) (A) (A) (A) (A) (A) (A) (A) (A)
                 (A) (A) (A) (A) (A) (A) (A) (A) (A) (A) (A) (A)
                 (A) (A) (A) (A) (A) (A) (A) (A) (A) (A) (A) (A)
 The electronic state is 1-A.
 Alpha  occ. eigenvalues --  -10.16874 -10.16794 -10.16341  -0.82294  -0.69672
 Alpha  occ. eigenvalues --   -0.56797  -0.48718  -0.45622  -0.41380  -0.38694
 Alpha  occ. eigenvalues --   -0.35124  -0.32897  -0.30290
 Alpha virt. eigenvalues --    0.01333   0.03363   0.03619   0.03882   0.06848
 Alpha virt. eigenvalues --    0.07682   0.07868   0.08178   0.09553   0.11627
 Alpha virt. eigenvalues --    0.12807   0.14922   0.18923   0.19695   0.21352
 Alpha virt. eigenvalues --    0.24107   0.25201   0.26585   0.31399   0.32052
 Alpha virt. eigenvalues --    0.35121   0.36057   0.59814   0.60941   0.61737
 Alpha virt. eigenvalues --    0.66449   0.66933   0.70194   0.75977   0.76620
 Alpha virt. eigenvalues --    0.79989   0.89777   0.93052   0.94731   0.96907
 Alpha virt. eigenvalues --    1.02531   1.05622   1.10014   1.10816   1.11282
 Alpha virt. eigenvalues --    1.27216   1.32204   1.41531   1.57816   1.58975
 Alpha virt. eigenvalues --    1.73434   1.80531   1.91773   2.01930   2.03500
 Alpha virt. eigenvalues --    2.03937   2.04371   2.06976   2.08620   2.09691
 Alpha virt. eigenvalues --    2.11257   2.12372   2.30643   2.32989   2.33582
 Alpha virt. eigenvalues --    2.38389   2.42102   2.50672   2.60654   2.68035
 Alpha virt. eigenvalues --    2.69753   2.72230   2.75533   2.83530   2.89680
 Alpha virt. eigenvalues --    2.96729   2.97845   3.01627   3.22851   3.27382
 Alpha virt. eigenvalues --    3.31298   3.36447   3.42051   3.49232   3.53099
 Alpha virt. eigenvalues --    3.63019   4.37527   4.52535   4.70991
          Condensed to atoms (all electrons):
              1          2          3          4          5          6
     1  C    5.160620   0.202500   0.418148   0.424337   0.437077  -0.038760
     2  C    0.202500   5.290330  -0.055051  -0.070619  -0.087060   0.388552
     3  H    0.418148  -0.055051   0.571001  -0.030297  -0.028211  -0.009238
     4  H    0.424337  -0.070619  -0.030297   0.574149  -0.026637   0.007491
     5  H    0.437077  -0.087060  -0.028211  -0.026637   0.562118  -0.005457
     6  H   -0.038760   0.388552  -0.009238   0.007491  -0.005457   0.599162
     7  H   -0.066349   0.462656   0.008033  -0.008691  -0.009045  -0.030178
     8  C   -0.048048   0.202790  -0.016097  -0.007401   0.013752  -0.036709
     9  H   -0.018812  -0.033710   0.005323  -0.001063  -0.000166  -0.009157
    10  H    0.012094  -0.083977  -0.000153   0.000092  -0.000253  -0.005116
    11  H   -0.009697  -0.075635  -0.000898   0.007844   0.000091   0.007313
              7          8          9         10         11
     1  C   -0.066349  -0.048048  -0.018812   0.012094  -0.009697
     2  C    0.462656   0.202790  -0.033710  -0.083977  -0.075635
     3  H    0.008033  -0.016097   0.005323  -0.000153  -0.000898
     4  H   -0.008691  -0.007401  -0.001063   0.000092   0.007844
     5  H   -0.009045   0.013752  -0.000166  -0.000253   0.000091
     6  H   -0.030178  -0.036709  -0.009157  -0.005116   0.007313
     7  H    0.631801  -0.102440   0.010610  -0.013731  -0.011830
     8  C   -0.102440   5.194722   0.394576   0.439126   0.433124
     9  H    0.010610   0.394576   0.579160  -0.028149  -0.030665
    10  H   -0.013731   0.439126  -0.028149   0.566349  -0.027990
    11  H   -0.011830   0.433124  -0.030665  -0.027990   0.574107
 Mulliken atomic charges:
              1
     1  C   -0.473111
     2  C   -0.140777
     3  H    0.137441
     4  H    0.130795
     5  H    0.143791
     6  H    0.132098
     7  H    0.129163
     8  C   -0.467396
     9  H    0.132051
    10  H    0.141707
    11  H    0.134237
 Sum of Mulliken atomic charges =   0.00000
 Mulliken charges with hydrogens summed into heavy atoms:
              1
     1  C   -0.061084
     2  C    0.120484
     8  C   -0.059401
 Sum of Mulliken charges with hydrogens summed into heavy atoms =   0.00000
 Electronic spatial extent (au):  <R**2>=            210.6732
 Charge=              0.0000 electrons
 Dipole moment (field-independent basis, Debye):
    X=              0.0101    Y=              0.1659    Z=             -0.0576  Tot=              0.1759
 Quadrupole moment (field-independent basis, Debye-Ang):
   XX=            -23.0544   YY=            -22.5189   ZZ=            -21.5009
   XY=             -0.1194   XZ=              0.2588   YZ=              0.2967
 Traceless Quadrupole moment (field-independent basis, Debye-Ang):
   XX=             -0.6963   YY=             -0.1608   ZZ=              0.8572
   XY=             -0.1194   XZ=              0.2588   YZ=              0.2967
 Octapole moment (field-independent basis, Debye-Ang**2):
  XXX=              0.2055  YYY=              0.2943  ZZZ=              0.3129  XYY=              0.0369
  XXY=              2.5169  XXZ=             -0.5429  XZZ=              0.0175  YZZ=             -0.3098
  YYZ=             -0.1036  XYZ=              0.0160
 Hexadecapole moment (field-independent basis, Debye-Ang**3):
 XXXX=           -197.4594 YYYY=            -67.7000 ZZZZ=            -46.9522 XXXY=             -0.2701
 XXXZ=              0.4282 YYYX=             -0.1554 YYYZ=              1.6463 ZZZX=              0.5313
 ZZZY=              0.2095 XXYY=            -42.7288 XXZZ=            -40.7434 YYZZ=            -18.0472
 XXYZ=             -0.4329 YYXZ=              0.2821 ZZXY=             -0.1997
 N-N= 8.649171540395D+01 E-N=-4.477512003039D+02  KE= 1.184191734422D+02
 No NMR shielding tensors so no spin-rotation constants.
 Leave Link  601 at Fri Jun 21 19:14:17 2024, MaxMem=   33554432 cpu:       0.0
 (Enter /programs/64bit/g09/g09-gfortran/bin/l701.exe)
 Compute integral first derivatives.
 ... and contract with generalized density number  0.
 Leave Link  701 at Fri Jun 21 19:14:17 2024, MaxMem=   33554432 cpu:       0.1
 (Enter /programs/64bit/g09/g09-gfortran/bin/l702.exe)
 L702 exits ... SP integral derivatives will be done elsewhere.
 Leave Link  702 at Fri Jun 21 19:14:17 2024, MaxMem=   33554432 cpu:       0.0
 (Enter /programs/64bit/g09/g09-gfortran/bin/l703.exe)
 Compute integral first derivatives, UseDBF=F ICtDFT=           0.
 Integral derivatives from FoFDir, PRISM(SPDF).
 Calling FoFJK, ICntrl=      2127 FMM=F ISym2X=0 I1Cent= 0 IOpClX= 0 NMat=1 NMatS=1 NMatT=0.
 FoFCou: FMM=F IPFlag=           0 FMFlag=      100000 FMFlg1=         800
         NFxFlg=           0 DoJE=F BraDBF=F KetDBF=F FulRan=T
         Omega=  0.000000  0.000000  1.000000  0.000000  0.000000 ICntrl=    2127 IOpCl=  0
         NMat0=    1 NMatS0=    1 NMatT0=    0 NMatD0=    1 NMtDS0=    0 NMtDT0=    0
         I1Cent=           0 NGrid=           0.
 Symmetry not used in FoFCou.
 Leave Link  703 at Fri Jun 21 19:14:21 2024, MaxMem=   33554432 cpu:       3.6
 (Enter /programs/64bit/g09/g09-gfortran/bin/l716.exe)
 Dipole        = 3.98197356D-03 6.52673609D-02-2.26641791D-02
 ***** Axes restored to original set *****
 -------------------------------------------------------------------
 Center     Atomic                   Forces (Hartrees/Bohr)
 Number     Number              X              Y              Z
 -------------------------------------------------------------------
      1        6           0.003652041   -0.002356999   -0.076762885
      2        6          -0.051031078    0.068279921    0.056449814
      3        1          -0.003026184   -0.001002958   -0.009466060
      4        1           0.002036713    0.003120110   -0.008772667
      5        1           0.003701796   -0.004624848   -0.007775549
      6        1          -0.004158566    0.001102173    0.006234310
      7        1          -0.008806911    0.026360251   -0.005507664
      8        6           0.046087917   -0.066116340    0.034893150
      9        1           0.001476759   -0.012121196    0.006190682
     10        1           0.005421933   -0.008446315   -0.001246042
     11        1           0.004645580   -0.004193799    0.005762910
 -------------------------------------------------------------------
 Cartesian Forces:  Max     0.076762885 RMS     0.027844661
 Leave Link  716 at Fri Jun 21 19:14:21 2024, MaxMem=   33554432 cpu:       0.0
 (Enter /programs/64bit/g09/g09-gfortran/bin/l103.exe)

 GradGradGradGradGradGradGradGradGradGradGradGradGradGradGradGradGradGrad
 Berny optimization.
 Internal  Forces:  Max     0.113466581 RMS     0.024074861
 Search for a local minimum.
 Step number   1 out of a maximum of   56
 All quantities printed in internal units (Hartrees-Bohrs-Radians)
 RMS Force = .24075D-01 SwitMx=.10000D-02 MixMth= 1
 Mixed Optimization -- RFO/linear search
 Second derivative matrix not updated -- first step.
     Eigenvalues ---    0.02089   0.02089   0.04291   0.06106   0.07005
     Eigenvalues ---    0.07005   0.07005   0.07005   0.10091   0.13407
     Eigenvalues ---    0.16000   0.16000   0.16000   0.16000   0.16000
     Eigenvalues ---    0.16000   0.22143   0.33682   0.33682   0.33682
     Eigenvalues ---    0.33682   0.33682   0.33682   0.33682   0.33682
     Eigenvalues ---    0.45621   0.456211000.000001000.000001000.00000
     Eigenvalues --- 1000.000001000.000001000.000001000.000001000.00000
     Eigenvalues --- 1000.000001000.000001000.000001000.000001000.00000
     Eigenvalues --- 1000.000001000.000001000.000001000.000001000.00000
     Eigenvalues --- 1000.00000
 RFO step:  Lambda=-6.13842189D-02 EMin= 2.08875573D-02
 Linear search not attempted -- first point.
 Maximum step size (   0.300) exceeded in Quadratic search.
    -- Step size scaled by   0.713
 Iteration  1 RMS(Cart)=  0.07736260 RMS(Int)=  0.00180585
 Iteration  2 RMS(Cart)=  0.00220574 RMS(Int)=  0.00045204
 Iteration  3 RMS(Cart)=  0.00000325 RMS(Int)=  0.00045203
 Iteration  4 RMS(Cart)=  0.00000000 RMS(Int)=  0.00045203
 Variable       Old X    -DE/DX   Delta X   Delta X   Delta X     New X
                                 (Linear)    (Quad)   (Total)
    R1        2.64562   0.10277   0.00000   0.14162   0.14162   2.78724
    R2        2.07870   0.00022   0.00000   0.00040   0.00040   2.07909
    R3        2.07870  -0.00066   0.00000  -0.00119  -0.00119   2.07751
    R4        2.07870  -0.00300   0.00000  -0.00538  -0.00538   2.07332
    R5        2.07870   0.00097   0.00000   0.00173   0.00173   2.08043
    R6        2.07870   0.00653   0.00000   0.01170   0.01170   2.09040
    R7        2.64562   0.11347   0.00000   0.15635   0.15635   2.80197
    R8        2.07870   0.00231   0.00000   0.00414   0.00414   2.08284
    R9        2.07870  -0.00338   0.00000  -0.00606  -0.00606   2.07264
   R10        2.07870  -0.00108   0.00000  -0.00193  -0.00193   2.07677
    A1        1.90241   0.01064   0.00000   0.03405   0.03349   1.93590
    A2        1.90241   0.01000   0.00000   0.03216   0.03161   1.93402
    A3        1.90241   0.00972   0.00000   0.03159   0.03102   1.93343
    A4        1.91879  -0.01044   0.00000  -0.03419  -0.03472   1.88407
    A5        1.91879  -0.00994   0.00000  -0.03193  -0.03247   1.88631
    A6        1.91879  -0.00944   0.00000  -0.02996  -0.03049   1.88830
    A7        1.90241   0.01106   0.00000   0.01897   0.01811   1.92052
    A8        1.90241  -0.00607   0.00000  -0.01899  -0.01774   1.88467
    A9        2.09440  -0.02078   0.00000  -0.04804  -0.04805   2.04635
   A10        1.91879  -0.00984   0.00000  -0.04079  -0.04104   1.87774
   A11        1.95457   0.00030   0.00000  -0.01183  -0.01232   1.94225
   A12        1.67479   0.02552   0.00000   0.10431   0.10475   1.77954
   A13        1.90241   0.01624   0.00000   0.05280   0.05197   1.95438
   A14        1.90241   0.00946   0.00000   0.03068   0.03002   1.93242
   A15        1.90241   0.00739   0.00000   0.02315   0.02266   1.92507
   A16        1.91879  -0.01187   0.00000  -0.03688  -0.03782   1.88096
   A17        1.91879  -0.01183   0.00000  -0.03851  -0.03915   1.87963
   A18        1.91879  -0.00882   0.00000  -0.02936  -0.02965   1.88913
    D1        1.04720   0.00095   0.00000   0.00599   0.00592   1.05312
    D2        3.14159  -0.00803   0.00000  -0.04354  -0.04359   3.09800
    D3       -1.23918   0.00863   0.00000   0.04957   0.04970  -1.18948
    D4        3.14159   0.00057   0.00000   0.00396   0.00388  -3.13771
    D5       -1.04720  -0.00840   0.00000  -0.04557  -0.04563  -1.09283
    D6        0.85521   0.00826   0.00000   0.04754   0.04766   0.90287
    D7       -1.04720   0.00088   0.00000   0.00561   0.00553  -1.04167
    D8        1.04720  -0.00810   0.00000  -0.04393  -0.04398   1.00321
    D9        2.94961   0.00856   0.00000   0.04919   0.04931   2.99892
   D10        1.21622  -0.00284   0.00000  -0.02775  -0.02721   1.18901
   D11       -2.97257  -0.00191   0.00000  -0.02274  -0.02195  -2.99452
   D12       -0.87817  -0.00257   0.00000  -0.02629  -0.02576  -0.90394
   D13       -1.04720   0.00077   0.00000   0.00428   0.00402  -1.04317
   D14        1.04720   0.00169   0.00000   0.00929   0.00929   1.05648
   D15        3.14159   0.00104   0.00000   0.00574   0.00547  -3.13612
   D16       -3.04253  -0.00082   0.00000   0.00227   0.00175  -3.04079
   D17       -0.94814   0.00010   0.00000   0.00728   0.00701  -0.94113
   D18        1.14626  -0.00056   0.00000   0.00373   0.00320   1.14945
         Item               Value     Threshold  Converged?
 Maximum Force            0.113467     0.000450     NO 
 RMS     Force            0.024075     0.000300     NO 
 Maximum Displacement     0.207159     0.001800     NO 
 RMS     Displacement     0.076407     0.001200     NO 
 Predicted change in Energy=-3.092195D-02
 GradGradGradGradGradGradGradGradGradGradGradGradGradGradGradGradGradGrad

 Leave Link  103 at Fri Jun 21 19:14:21 2024, MaxMem=   33554432 cpu:       0.0
 (Enter /programs/64bit/g09/g09-gfortran/bin/l202.exe)
                          Input orientation:                          
 ---------------------------------------------------------------------
 Center     Atomic      Atomic             Coordinates (Angstroms)
 Number     Number       Type             X           Y           Z
 ---------------------------------------------------------------------
      1          6           0       -0.011221    0.015889   -0.041472
      2          6           0       -0.038003    0.040863    1.433014
      3          1           0        1.023292   -0.007520   -0.415231
      4          1           0       -0.530781   -0.873143   -0.426565
      5          1           0       -0.502490    0.905589   -0.454790
      6          1           0        0.481748    0.937410    1.804602
      7          1           0       -1.094274    0.109624    1.754304
      8          6           0        0.419755   -1.178838    2.141037
      9          1           0        1.501401   -1.348197    2.013798
     10          1           0        0.217070   -1.102494    3.216234
     11          1           0       -0.104690   -2.063719    1.754132
 ---------------------------------------------------------------------
                    Distance matrix (angstroms):
                    1          2          3          4          5
     1  C    0.000000
     2  C    1.474941   0.000000
     3  H    1.100209   2.131830   0.000000
     4  H    1.099371   2.129853   1.778925   0.000000
     5  H    1.097152   2.127746   1.778579   1.779180   0.000000
     6  H    2.121369   1.100915   2.472614   3.046543   2.464668
     7  H    2.099192   1.106193   3.033924   2.457549   2.421542
     8  C    2.525166   1.482738   2.875892   2.754914   3.454518
     9  H    2.893595   2.153268   2.815348   3.211045   3.897314
    10  H    3.451890   2.133588   3.877693   3.725838   4.245772
    11  H    2.749128   2.129984   3.194752   2.520807   3.722146
                    6          7          8          9         10
     6  H    0.000000
     7  H    1.780900   0.000000
     8  C    2.143721   2.025335   0.000000
     9  H    2.511465   2.988329   1.102193   0.000000
    10  H    2.494788   2.307833   1.096794   1.776437   0.000000
    11  H    3.058306   2.388032   1.098978   1.777337   1.779108
                   11
    11  H    0.000000
 Stoichiometry    C3H8
 Framework group  C1[X(C3H8)]
 Deg. of freedom    27
 Full point group                 C1      NOp   1
 Largest Abelian subgroup         C1      NOp   1
 Largest concise Abelian subgroup C1      NOp   1
                         Standard orientation:                         
 ---------------------------------------------------------------------
 Center     Atomic      Atomic             Coordinates (Angstroms)
 Number     Number       Type             X           Y           Z
 ---------------------------------------------------------------------
      1          6           0        1.263648   -0.238589    0.002669
      2          6           0        0.005191    0.530642    0.007401
      3          1           0        1.401543   -0.772063    0.954956
      4          1           0        1.263114   -0.983420   -0.805936
      5          1           0        2.124950    0.425125   -0.143575
      6          1           0        0.020928    1.274679    0.818682
      7          1           0       -0.062205    1.081139   -0.949717
      8          6           0       -1.261511   -0.240056    0.008454
      9          1           0       -1.413787   -0.782064    0.956014
     10          1           0       -2.120819    0.425531   -0.138312
     11          1           0       -1.257690   -0.980914   -0.803253
 ---------------------------------------------------------------------
 Rotational constants (GHZ):     31.8568772      8.5203693      7.6996711
 Leave Link  202 at Fri Jun 21 19:14:21 2024, MaxMem=   33554432 cpu:       0.0
 (Enter /programs/64bit/g09/g09-gfortran/bin/l301.exe)
 Standard basis: 6-31+G(d,p) (6D, 7F)
 Ernie: Thresh=  0.10000D-02 Tol=  0.10000D-05 Strict=F.
 There are    97 symmetry adapted basis functions of A   symmetry.
 Integral buffers will be    131072 words long.
 Raffenetti 2 integral format.
 Two-electron integral symmetry is turned on.
    97 basis functions,   152 primitive gaussians,    97 cartesian basis functions
    13 alpha electrons       13 beta electrons
       nuclear repulsion energy        83.6529634283 Hartrees.
 IExCor=  402 DFT=T Ex+Corr=B3LYP ExCW=0 ScaHFX=  0.200000
 ScaDFX=  0.800000  0.720000  1.000000  0.810000 ScalE2=  1.000000  1.000000
 IRadAn=      0 IRanWt=     -1 IRanGd=            0 ICorTp=0
 NAtoms=   11 NActive=   11 NUniq=   11 SFac= 7.50D-01 NAtFMM=   80 NAOKFM=F Big=F
 Leave Link  301 at Fri Jun 21 19:14:21 2024, MaxMem=   33554432 cpu:       0.0
 (Enter /programs/64bit/g09/g09-gfortran/bin/l302.exe)
 NPDir=0 NMtPBC=     1 NCelOv=     1 NCel=       1 NClECP=     1 NCelD=      1
         NCelK=      1 NCelE2=     1 NClLst=     1 CellRange=     0.0.
 One-electron integrals computed using PRISM.
 NBasis=    97 RedAO= T  NBF=    97
 NBsUse=    97 1.00D-06 NBFU=    97
 Precomputing XC quadrature grid using
 IXCGrd= 2 IRadAn=           0 IRanWt=          -1 IRanGd=           0 AccXCQ= 1.00D-10.
 NRdTot=     703 NPtTot=       89482 NUsed=       94559 NTot=       94591
 NSgBfM=    97    97    97    97    97 NAtAll=    11    11.
 Leave Link  302 at Fri Jun 21 19:14:21 2024, MaxMem=   33554432 cpu:       0.1
 (Enter /programs/64bit/g09/g09-gfortran/bin/l303.exe)
 DipDrv:  MaxL=1.
 Leave Link  303 at Fri Jun 21 19:14:21 2024, MaxMem=   33554432 cpu:       0.0
 (Enter /programs/64bit/g09/g09-gfortran/bin/l401.exe)
 Initial guess read from the read-write file.
 B after Tr=     0.000000    0.000000    0.000000
         Rot=    1.000000    0.000000    0.000000    0.000000 Ang=   0.00 deg.
 Guess basis will be translated and rotated to current coordinates.
 Initial guess orbital symmetries:
       Occupied  (A) (A) (A) (A) (A) (A) (A) (A) (A) (A) (A) (A)
                 (A)
       Virtual   (A) (A) (A) (A) (A) (A) (A) (A) (A) (A) (A) (A)
                 (A) (A) (A) (A) (A) (A) (A) (A) (A) (A) (A) (A)
                 (A) (A) (A) (A) (A) (A) (A) (A) (A) (A) (A) (A)
                 (A) (A) (A) (A) (A) (A) (A) (A) (A) (A) (A) (A)
                 (A) (A) (A) (A) (A) (A) (A) (A) (A) (A) (A) (A)
                 (A) (A) (A) (A) (A) (A) (A) (A) (A) (A) (A) (A)
                 (A) (A) (A) (A) (A) (A) (A) (A) (A) (A) (A) (A)
 The electronic state of the initial guess is 1-A.
 Generating alternative initial guess.
 Harris functional with IExCor=  402 diagonalized for initial guess.
 ExpMin= 4.38D-02 ExpMax= 3.05D+03 ExpMxC= 4.57D+02 IAcc=2 IRadAn=         0 AccDes= 0.00D+00
 HarFok:  IExCor=  402 AccDes= 0.00D+00 IRadAn=         0 IDoV= 1
 ScaDFX=  1.000000  1.000000  1.000000  1.000000
 FoFCou: FMM=F IPFlag=           0 FMFlag=      100000 FMFlg1=           0
         NFxFlg=           0 DoJE=T BraDBF=F KetDBF=T FulRan=T
         Omega=  0.000000  0.000000  1.000000  0.000000  0.000000 ICntrl=     500 IOpCl=  0
         NMat0=    1 NMatS0=    1 NMatT0=    0 NMatD0=    1 NMtDS0=    0 NMtDT0=    0
         I1Cent=           4 NGrid=           0.
 Petite list used in FoFCou.
 Harris En= -119.227126520933    
 Leave Link  401 at Fri Jun 21 19:14:23 2024, MaxMem=   33554432 cpu:       1.5
 (Enter /programs/64bit/g09/g09-gfortran/bin/l502.exe)
 Closed shell SCF:
 Requested convergence on RMS density matrix=1.00D-08 within 128 cycles.
 Requested convergence on MAX density matrix=1.00D-06.
 Requested convergence on             energy=1.00D-06.
 No special actions if energy rises.
 Using DIIS extrapolation, IDIIS=  1040.
 Integral symmetry usage will be decided dynamically.
        94447 words used for storage of precomputed grid.
 Keep R1 ints in memory in canonical form, NReq=12357801.
 IEnd=      142142 IEndB=      142142 NGot=    33554432 MDV=    22140528
 LenX=    22140528 LenY=    22130678
 Symmetry not used in FoFDir.
 MinBra= 0 MaxBra= 2 Meth= 1.
 IRaf=       0 NMat=   1 IRICut=       1 DoRegI=T DoRafI=F ISym2E= 0 JSym2E=0.

 Cycle   1  Pass 1  IDiag  1:
 E= -119.147457675330    
 DIIS: error= 4.33D-03 at cycle   1 NSaved=   1.
 NSaved= 1 IEnMin= 1 EnMin= -119.147457675330     IErMin= 1 ErrMin= 4.33D-03
 ErrMax= 4.33D-03 EMaxC= 1.00D-01 BMatC= 3.63D-03 BMatP= 3.63D-03
 IDIUse=3 WtCom= 9.57D-01 WtEn= 4.33D-02
 Coeff-Com:  0.100D+01
 Coeff-En:   0.100D+01
 Coeff:      0.100D+01
 Gap=     0.333 Goal=   None    Shift=    0.000
 GapD=    0.333 DampG=1.000 DampE=1.000 DampFc=1.0000 IDamp=-1.
 RMSDP=1.68D-03 MaxDP=3.16D-02              OVMax= 2.23D-02

 Cycle   2  Pass 1  IDiag  1:
 E= -119.153027663087     Delta-E=       -0.005569987757 Rises=F Damp=F
 DIIS: error= 1.96D-03 at cycle   2 NSaved=   2.
 NSaved= 2 IEnMin= 2 EnMin= -119.153027663087     IErMin= 2 ErrMin= 1.96D-03
 ErrMax= 1.96D-03 EMaxC= 1.00D-01 BMatC= 2.56D-04 BMatP= 3.63D-03
 IDIUse=3 WtCom= 9.80D-01 WtEn= 1.96D-02
 Coeff-Com:  0.866D-01 0.913D+00
 Coeff-En:   0.000D+00 0.100D+01
 Coeff:      0.849D-01 0.915D+00
 Gap=     0.334 Goal=   None    Shift=    0.000
 RMSDP=3.41D-04 MaxDP=6.19D-03 DE=-5.57D-03 OVMax= 7.23D-03

 Cycle   3  Pass 1  IDiag  1:
 E= -119.153060263142     Delta-E=       -0.000032600056 Rises=F Damp=F
 DIIS: error= 1.44D-03 at cycle   3 NSaved=   3.
 NSaved= 3 IEnMin= 3 EnMin= -119.153060263142     IErMin= 3 ErrMin= 1.44D-03
 ErrMax= 1.44D-03 EMaxC= 1.00D-01 BMatC= 2.21D-04 BMatP= 2.56D-04
 IDIUse=3 WtCom= 9.86D-01 WtEn= 1.44D-02
 Coeff-Com: -0.220D-01 0.483D+00 0.539D+00
 Coeff-En:   0.000D+00 0.465D+00 0.535D+00
 Coeff:     -0.217D-01 0.483D+00 0.539D+00
 Gap=     0.331 Goal=   None    Shift=    0.000
 RMSDP=1.61D-04 MaxDP=3.50D-03 DE=-3.26D-05 OVMax= 3.67D-03

 Cycle   4  Pass 1  IDiag  1:
 E= -119.153280406112     Delta-E=       -0.000220142969 Rises=F Damp=F
 DIIS: error= 1.84D-04 at cycle   4 NSaved=   4.
 NSaved= 4 IEnMin= 4 EnMin= -119.153280406112     IErMin= 4 ErrMin= 1.84D-04
 ErrMax= 1.84D-04 EMaxC= 1.00D-01 BMatC= 3.19D-06 BMatP= 2.21D-04
 IDIUse=3 WtCom= 9.98D-01 WtEn= 1.84D-03
 Coeff-Com: -0.885D-02 0.101D+00 0.177D+00 0.731D+00
 Coeff-En:   0.000D+00 0.000D+00 0.000D+00 0.100D+01
 Coeff:     -0.883D-02 0.101D+00 0.177D+00 0.731D+00
 Gap=     0.331 Goal=   None    Shift=    0.000
 RMSDP=2.04D-05 MaxDP=3.70D-04 DE=-2.20D-04 OVMax= 5.39D-04

 Cycle   5  Pass 1  IDiag  1:
 E= -119.153283778778     Delta-E=       -0.000003372666 Rises=F Damp=F
 DIIS: error= 2.06D-05 at cycle   5 NSaved=   5.
 NSaved= 5 IEnMin= 5 EnMin= -119.153283778778     IErMin= 5 ErrMin= 2.06D-05
 ErrMax= 2.06D-05 EMaxC= 1.00D-01 BMatC= 6.11D-08 BMatP= 3.19D-06
 IDIUse=1 WtCom= 1.00D+00 WtEn= 0.00D+00
 Coeff-Com: -0.198D-02 0.161D-01 0.380D-01 0.205D+00 0.743D+00
 Coeff:     -0.198D-02 0.161D-01 0.380D-01 0.205D+00 0.743D+00
 Gap=     0.331 Goal=   None    Shift=    0.000
 RMSDP=4.72D-06 MaxDP=7.86D-05 DE=-3.37D-06 OVMax= 8.75D-05

 Cycle   6  Pass 1  IDiag  1:
 E= -119.153283831683     Delta-E=       -0.000000052905 Rises=F Damp=F
 DIIS: error= 8.51D-06 at cycle   6 NSaved=   6.
 NSaved= 6 IEnMin= 6 EnMin= -119.153283831683     IErMin= 6 ErrMin= 8.51D-06
 ErrMax= 8.51D-06 EMaxC= 1.00D-01 BMatC= 1.04D-08 BMatP= 6.11D-08
 IDIUse=1 WtCom= 1.00D+00 WtEn= 0.00D+00
 Coeff-Com: -0.185D-03-0.102D-02 0.312D-02 0.363D-01 0.326D+00 0.635D+00
 Coeff:     -0.185D-03-0.102D-02 0.312D-02 0.363D-01 0.326D+00 0.635D+00
 Gap=     0.331 Goal=   None    Shift=    0.000
 RMSDP=1.08D-06 MaxDP=2.28D-05 DE=-5.29D-08 OVMax= 2.63D-05

 Cycle   7  Pass 1  IDiag  1:
 E= -119.153283841362     Delta-E=       -0.000000009679 Rises=F Damp=F
 DIIS: error= 1.92D-06 at cycle   7 NSaved=   7.
 NSaved= 7 IEnMin= 7 EnMin= -119.153283841362     IErMin= 7 ErrMin= 1.92D-06
 ErrMax= 1.92D-06 EMaxC= 1.00D-01 BMatC= 3.74D-10 BMatP= 1.04D-08
 IDIUse=1 WtCom= 1.00D+00 WtEn= 0.00D+00
 Coeff-Com:  0.220D-04-0.106D-02-0.781D-03 0.298D-02 0.797D-01 0.238D+00
 Coeff-Com:  0.681D+00
 Coeff:      0.220D-04-0.106D-02-0.781D-03 0.298D-02 0.797D-01 0.238D+00
 Coeff:      0.681D+00
 Gap=     0.331 Goal=   None    Shift=    0.000
 RMSDP=3.34D-07 MaxDP=5.01D-06 DE=-9.68D-09 OVMax= 6.21D-06

 Cycle   8  Pass 1  IDiag  1:
 E= -119.153283841753     Delta-E=       -0.000000000391 Rises=F Damp=F
 DIIS: error= 2.56D-07 at cycle   8 NSaved=   8.
 NSaved= 8 IEnMin= 8 EnMin= -119.153283841753     IErMin= 8 ErrMin= 2.56D-07
 ErrMax= 2.56D-07 EMaxC= 1.00D-01 BMatC= 7.35D-12 BMatP= 3.74D-10
 IDIUse=1 WtCom= 1.00D+00 WtEn= 0.00D+00
 Coeff-Com:  0.121D-04-0.160D-03-0.355D-03-0.114D-02 0.463D-03 0.216D-01
 Coeff-Com:  0.152D+00 0.828D+00
 Coeff:      0.121D-04-0.160D-03-0.355D-03-0.114D-02 0.463D-03 0.216D-01
 Coeff:      0.152D+00 0.828D+00
 Gap=     0.331 Goal=   None    Shift=    0.000
 RMSDP=8.22D-08 MaxDP=1.41D-06 DE=-3.91D-10 OVMax= 9.21D-07

 Cycle   9  Pass 1  IDiag  1:
 E= -119.153283841762     Delta-E=       -0.000000000009 Rises=F Damp=F
 DIIS: error= 6.12D-08 at cycle   9 NSaved=   9.
 NSaved= 9 IEnMin= 9 EnMin= -119.153283841762     IErMin= 9 ErrMin= 6.12D-08
 ErrMax= 6.12D-08 EMaxC= 1.00D-01 BMatC= 5.55D-13 BMatP= 7.35D-12
 IDIUse=1 WtCom= 1.00D+00 WtEn= 0.00D+00
 Coeff-Com:  0.478D-05-0.472D-04-0.136D-03-0.549D-03-0.128D-02 0.470D-02
 Coeff-Com:  0.517D-01 0.352D+00 0.594D+00
 Coeff:      0.478D-05-0.472D-04-0.136D-03-0.549D-03-0.128D-02 0.470D-02
 Coeff:      0.517D-01 0.352D+00 0.594D+00
 Gap=     0.331 Goal=   None    Shift=    0.000
 RMSDP=1.02D-08 MaxDP=1.74D-07 DE=-8.58D-12 OVMax= 2.09D-07

 Cycle  10  Pass 1  IDiag  1:
 E= -119.153283841761     Delta-E=        0.000000000001 Rises=F Damp=F
 DIIS: error= 1.80D-08 at cycle  10 NSaved=  10.
 NSaved=10 IEnMin= 9 EnMin= -119.153283841762     IErMin=10 ErrMin= 1.80D-08
 ErrMax= 1.80D-08 EMaxC= 1.00D-01 BMatC= 4.18D-14 BMatP= 5.55D-13
 IDIUse=1 WtCom= 1.00D+00 WtEn= 0.00D+00
 Coeff-Com:  0.733D-06-0.321D-05-0.194D-04-0.116D-03-0.555D-03-0.296D-03
 Coeff-Com:  0.569D-02 0.592D-01 0.244D+00 0.692D+00
 Coeff:      0.733D-06-0.321D-05-0.194D-04-0.116D-03-0.555D-03-0.296D-03
 Coeff:      0.569D-02 0.592D-01 0.244D+00 0.692D+00
 Gap=     0.331 Goal=   None    Shift=    0.000
 RMSDP=2.72D-09 MaxDP=4.31D-08 DE= 5.40D-13 OVMax= 5.05D-08

 SCF Done:  E(RB3LYP) =  -119.153283842     A.U. after   10 cycles
             Convg  =    0.2722D-08             -V/T =  2.0094
 KE= 1.180466328093D+02 PE=-4.418747214393D+02 EE= 1.210218413600D+02
 Leave Link  502 at Fri Jun 21 19:14:40 2024, MaxMem=   33554432 cpu:      17.5
 (Enter /programs/64bit/g09/g09-gfortran/bin/l701.exe)
 Compute integral first derivatives.
 ... and contract with generalized density number  0.
 Leave Link  701 at Fri Jun 21 19:14:40 2024, MaxMem=   33554432 cpu:       0.1
 (Enter /programs/64bit/g09/g09-gfortran/bin/l702.exe)
 L702 exits ... SP integral derivatives will be done elsewhere.
 Leave Link  702 at Fri Jun 21 19:14:40 2024, MaxMem=   33554432 cpu:       0.0
 (Enter /programs/64bit/g09/g09-gfortran/bin/l703.exe)
 Compute integral first derivatives, UseDBF=F ICtDFT=           0.
 Integral derivatives from FoFDir, PRISM(SPDF).
 Calling FoFJK, ICntrl=      2127 FMM=F ISym2X=0 I1Cent= 0 IOpClX= 0 NMat=1 NMatS=1 NMatT=0.
 FoFCou: FMM=F IPFlag=           0 FMFlag=      100000 FMFlg1=         800
         NFxFlg=           0 DoJE=F BraDBF=F KetDBF=F FulRan=T
         Omega=  0.000000  0.000000  1.000000  0.000000  0.000000 ICntrl=    2127 IOpCl=  0
         NMat0=    1 NMatS0=    1 NMatT0=    0 NMatD0=    1 NMtDS0=    0 NMtDT0=    0
         I1Cent=           0 NGrid=           0.
 Symmetry not used in FoFCou.
 Leave Link  703 at Fri Jun 21 19:14:45 2024, MaxMem=   33554432 cpu:       4.5
 (Enter /programs/64bit/g09/g09-gfortran/bin/l716.exe)
 Dipole        = 2.27776339D-03 4.16236013D-02-1.36001899D-02
 ***** Axes restored to original set *****
 -------------------------------------------------------------------
 Center     Atomic                   Forces (Hartrees/Bohr)
 Number     Number              X              Y              Z
 -------------------------------------------------------------------
      1        6           0.005895762   -0.002927228   -0.028771550
      2        6          -0.027136202    0.020098826    0.026006224
      3        1          -0.002054748   -0.000534881   -0.002548650
      4        1           0.000949541    0.001737593   -0.001859971
      5        1           0.001332691   -0.001467785   -0.001878057
      6        1          -0.001830745   -0.001549408    0.001451453
      7        1           0.001644608    0.011474320   -0.002689641
      8        6           0.020638626   -0.022248882    0.007819346
      9        1          -0.002027832   -0.002320756    0.001043477
     10        1           0.001285951   -0.001838575   -0.000654070
     11        1           0.001302348   -0.000423224    0.002081440
 -------------------------------------------------------------------
 Cartesian Forces:  Max     0.028771550 RMS     0.010825691
 Leave Link  716 at Fri Jun 21 19:14:45 2024, MaxMem=   33554432 cpu:       0.0
 (Enter /programs/64bit/g09/g09-gfortran/bin/l103.exe)

 GradGradGradGradGradGradGradGradGradGradGradGradGradGradGradGradGradGrad
 Berny optimization.
 Using GEDIIS/GDIIS optimizer.
 Internal  Forces:  Max     0.035211414 RMS     0.007909289
 Search for a local minimum.
 Step number   2 out of a maximum of   56
 All quantities printed in internal units (Hartrees-Bohrs-Radians)
 RMS Force = .79093D-02 SwitMx=.10000D-02 MixMth= 1
 Mixed Optimization -- RFO/linear search
 Update second derivatives using D2CorX and points    1    2
 DE= -2.83D-02 DEPred=-3.09D-02 R= 9.16D-01
 SS=  1.41D+00  RLast= 3.00D-01 DXNew= 5.0454D-01 8.9986D-01
 Trust test= 9.16D-01 RLast= 3.00D-01 DXMaxT set to 5.05D-01
 Use linear search instead of GDIIS.
     Eigenvalues ---    0.02089   0.02090   0.04508   0.06193   0.06613
     Eigenvalues ---    0.06702   0.06707   0.06744   0.09908   0.13243
     Eigenvalues ---    0.15987   0.16000   0.16000   0.16000   0.16000
     Eigenvalues ---    0.17090   0.21622   0.33605   0.33682   0.33682
     Eigenvalues ---    0.33682   0.33682   0.33682   0.33682   0.33735
     Eigenvalues ---    0.45035   0.484001000.000001000.000001000.00000
     Eigenvalues --- 1000.000001000.000001000.000001000.000001000.00000
     Eigenvalues --- 1000.000001000.000001000.000001000.000001000.00000
     Eigenvalues --- 1000.000001000.000001000.000001000.000001000.00000
     Eigenvalues --- 1000.00000
 RFO step:  Lambda=-4.03077262D-03 EMin= 2.08875176D-02
 Quartic linear search produced a step of  0.67558.
 Iteration  1 RMS(Cart)=  0.06917343 RMS(Int)=  0.00372509
 Iteration  2 RMS(Cart)=  0.00400261 RMS(Int)=  0.00135921
 Iteration  3 RMS(Cart)=  0.00001741 RMS(Int)=  0.00135918
 Iteration  4 RMS(Cart)=  0.00000002 RMS(Int)=  0.00135918
 Variable       Old X    -DE/DX   Delta X   Delta X   Delta X     New X
                                 (Linear)    (Quad)   (Total)
    R1        2.78724   0.03521   0.09567  -0.00454   0.09113   2.87837
    R2        2.07909  -0.00105   0.00027  -0.00554  -0.00527   2.07382
    R3        2.07751  -0.00120  -0.00080  -0.00479  -0.00560   2.07191
    R4        2.07332  -0.00108  -0.00364  -0.00028  -0.00391   2.06941
    R5        2.08043  -0.00164   0.00117  -0.00965  -0.00848   2.07195
    R6        2.09040  -0.00163   0.00791  -0.01892  -0.01102   2.07939
    R7        2.80197   0.03353   0.10563  -0.02442   0.08121   2.88318
    R8        2.08284  -0.00175   0.00280  -0.01245  -0.00965   2.07319
    R9        2.07264  -0.00101  -0.00409   0.00071  -0.00339   2.06925
   R10        2.07677  -0.00101  -0.00130  -0.00318  -0.00448   2.07229
    A1        1.93590   0.00336   0.02263   0.00422   0.02626   1.96216
    A2        1.93402   0.00222   0.02135  -0.00661   0.01425   1.94827
    A3        1.93343   0.00233   0.02096  -0.00393   0.01648   1.94991
    A4        1.88407  -0.00299  -0.02345   0.00119  -0.02275   1.86132
    A5        1.88631  -0.00288  -0.02194   0.00220  -0.02032   1.86599
    A6        1.88830  -0.00243  -0.02060   0.00324  -0.01777   1.87052
    A7        1.92052   0.00493   0.01224  -0.02294  -0.01650   1.90402
    A8        1.88467  -0.00018  -0.01198   0.03922   0.02886   1.91353
    A9        2.04635  -0.01167  -0.03246  -0.03590  -0.07098   1.97537
   A10        1.87774  -0.00469  -0.02773  -0.02699  -0.05316   1.82458
   A11        1.94225   0.00060  -0.00832  -0.03114  -0.04344   1.89882
   A12        1.77954   0.01158   0.07077   0.08915   0.16152   1.94106
   A13        1.95438   0.00285   0.03511  -0.01741   0.01703   1.97141
   A14        1.93242   0.00191   0.02028  -0.00737   0.01237   1.94480
   A15        1.92507   0.00208   0.01531  -0.00009   0.01481   1.93988
   A16        1.88096  -0.00235  -0.02555   0.01340  -0.01287   1.86809
   A17        1.87963  -0.00263  -0.02645   0.00935  -0.01761   1.86202
   A18        1.88913  -0.00223  -0.02003   0.00344  -0.01683   1.87230
    D1        1.05312  -0.00026   0.00400  -0.01121  -0.00662   1.04650
    D2        3.09800  -0.00326  -0.02945  -0.03362  -0.06308   3.03492
    D3       -1.18948   0.00443   0.03358   0.08636   0.11942  -1.07006
    D4       -3.13771  -0.00034   0.00262  -0.01129  -0.00808   3.13739
    D5       -1.09283  -0.00335  -0.03083  -0.03370  -0.06454  -1.15737
    D6        0.90287   0.00435   0.03220   0.08628   0.11796   1.02083
    D7       -1.04167  -0.00040   0.00374  -0.01415  -0.00989  -1.05156
    D8        1.00321  -0.00341  -0.02971  -0.03657  -0.06635   0.93686
    D9        2.99892   0.00429   0.03331   0.08341   0.11614   3.11506
   D10        1.18901  -0.00196  -0.01839  -0.07977  -0.09658   1.09242
   D11       -2.99452  -0.00171  -0.01483  -0.07954  -0.09262  -3.08714
   D12       -0.90394  -0.00192  -0.01741  -0.08005  -0.09590  -0.99983
   D13       -1.04317   0.00082   0.00272   0.01508   0.01611  -1.02707
   D14        1.05648   0.00107   0.00627   0.01531   0.02007   1.07655
   D15       -3.13612   0.00086   0.00370   0.01480   0.01680  -3.11932
   D16       -3.04079  -0.00011   0.00118   0.01211   0.01324  -3.02755
   D17       -0.94113   0.00014   0.00473   0.01234   0.01720  -0.92393
   D18        1.14945  -0.00007   0.00216   0.01183   0.01393   1.16338
         Item               Value     Threshold  Converged?
 Maximum Force            0.035211     0.000450     NO 
 RMS     Force            0.007909     0.000300     NO 
 Maximum Displacement     0.235736     0.001800     NO 
 RMS     Displacement     0.069065     0.001200     NO 
 Predicted change in Energy=-3.614499D-03
 GradGradGradGradGradGradGradGradGradGradGradGradGradGradGradGradGradGrad

 Leave Link  103 at Fri Jun 21 19:14:45 2024, MaxMem=   33554432 cpu:       0.0
 (Enter /programs/64bit/g09/g09-gfortran/bin/l202.exe)
                          Input orientation:                          
 ---------------------------------------------------------------------
 Center     Atomic      Atomic             Coordinates (Angstroms)
 Number     Number       Type             X           Y           Z
 ---------------------------------------------------------------------
      1          6           0       -0.010755    0.010576   -0.049652
      2          6           0       -0.118079    0.054751    1.469086
      3          1           0        1.028893   -0.059432   -0.393979
      4          1           0       -0.538806   -0.854889   -0.467081
      5          1           0       -0.440083    0.905374   -0.512491
      6          1           0        0.426031    0.930669    1.841732
      7          1           0       -1.163745    0.234370    1.760842
      8          6           0        0.437526   -1.194067    2.146988
      9          1           0        1.510266   -1.337150    1.967116
     10          1           0        0.296459   -1.156485    3.232214
     11          1           0       -0.065901   -2.098255    1.784287
 ---------------------------------------------------------------------
                    Distance matrix (angstroms):
                    1          2          3          4          5
     1  C    0.000000
     2  C    1.523167   0.000000
     3  H    1.097420   2.190798   0.000000
     4  H    1.096409   2.180184   1.759482   0.000000
     5  H    1.095083   2.180343   1.761473   1.763614   0.000000
     6  H    2.148183   1.096427   2.518362   3.074044   2.508617
     7  H    2.158091   1.100365   3.088241   2.557474   2.478301
     8  C    2.545063   1.525711   2.844929   2.810982   3.500097
     9  H    2.863080   2.199302   2.727463   3.218165   3.870559
    10  H    3.496721   2.178888   3.858660   3.804393   4.337807
    11  H    2.795271   2.176582   3.178083   2.615006   3.799603
                    6          7          8          9         10
     6  H    0.000000
     7  H    1.737459   0.000000
     8  C    2.146582   2.180277   0.000000
     9  H    2.516802   3.108466   1.097086   0.000000
    10  H    2.511263   2.496319   1.095002   1.762510   0.000000
    11  H    3.069149   2.578167   1.096607   1.759832   1.764859
                   11
    11  H    0.000000
 Stoichiometry    C3H8
 Framework group  C1[X(C3H8)]
 Deg. of freedom    27
 Full point group                 C1      NOp   1
 Largest Abelian subgroup         C1      NOp   1
 Largest concise Abelian subgroup C1      NOp   1
                         Standard orientation:                         
 ---------------------------------------------------------------------
 Center     Atomic      Atomic             Coordinates (Angstroms)
 Number     Number       Type             X           Y           Z
 ---------------------------------------------------------------------
      1          6           0        1.271260   -0.258874   -0.000407
      2          6           0        0.000861    0.581438    0.000602
      3          1           0        1.351459   -0.897476    0.888461
      4          1           0        1.314684   -0.924677   -0.870426
      5          1           0        2.170347    0.365776   -0.026089
      6          1           0       -0.001812    1.226389    0.887272
      7          1           0        0.019009    1.280193   -0.849229
      8          6           0       -1.273803   -0.257027   -0.001172
      9          1           0       -1.375954   -0.882159    0.894581
     10          1           0       -2.167350    0.373535   -0.055874
     11          1           0       -1.300291   -0.934803   -0.862836
 ---------------------------------------------------------------------
 Rotational constants (GHZ):     29.6030949      8.3976981      7.4350641
 Leave Link  202 at Fri Jun 21 19:14:45 2024, MaxMem=   33554432 cpu:       0.0
 (Enter /programs/64bit/g09/g09-gfortran/bin/l301.exe)
 Standard basis: 6-31+G(d,p) (6D, 7F)
 Ernie: Thresh=  0.10000D-02 Tol=  0.10000D-05 Strict=F.
 There are    97 symmetry adapted basis functions of A   symmetry.
 Integral buffers will be    131072 words long.
 Raffenetti 2 integral format.
 Two-electron integral symmetry is turned on.
    97 basis functions,   152 primitive gaussians,    97 cartesian basis functions
    13 alpha electrons       13 beta electrons
       nuclear repulsion energy        82.4229584369 Hartrees.
 IExCor=  402 DFT=T Ex+Corr=B3LYP ExCW=0 ScaHFX=  0.200000
 ScaDFX=  0.800000  0.720000  1.000000  0.810000 ScalE2=  1.000000  1.000000
 IRadAn=      0 IRanWt=     -1 IRanGd=            0 ICorTp=0
 NAtoms=   11 NActive=   11 NUniq=   11 SFac= 7.50D-01 NAtFMM=   80 NAOKFM=F Big=F
 Leave Link  301 at Fri Jun 21 19:14:45 2024, MaxMem=   33554432 cpu:       0.0
 (Enter /programs/64bit/g09/g09-gfortran/bin/l302.exe)
 NPDir=0 NMtPBC=     1 NCelOv=     1 NCel=       1 NClECP=     1 NCelD=      1
         NCelK=      1 NCelE2=     1 NClLst=     1 CellRange=     0.0.
 One-electron integrals computed using PRISM.
 NBasis=    97 RedAO= T  NBF=    97
 NBsUse=    97 1.00D-06 NBFU=    97
 Precomputing XC quadrature grid using
 IXCGrd= 2 IRadAn=           0 IRanWt=          -1 IRanGd=           0 AccXCQ= 1.00D-10.
 NRdTot=     703 NPtTot=       89482 NUsed=       94559 NTot=       94591
 NSgBfM=    97    97    97    97    97 NAtAll=    11    11.
 Leave Link  302 at Fri Jun 21 19:14:45 2024, MaxMem=   33554432 cpu:       0.1
 (Enter /programs/64bit/g09/g09-gfortran/bin/l303.exe)
 DipDrv:  MaxL=1.
 Leave Link  303 at Fri Jun 21 19:14:45 2024, MaxMem=   33554432 cpu:       0.0
 (Enter /programs/64bit/g09/g09-gfortran/bin/l401.exe)
 Initial guess read from the read-write file.
 B after Tr=     0.000000    0.000000    0.000000
         Rot=    1.000000    0.000000    0.000000    0.000000 Ang=   0.00 deg.
 Guess basis will be translated and rotated to current coordinates.
 Initial guess orbital symmetries:
       Occupied  (A) (A) (A) (A) (A) (A) (A) (A) (A) (A) (A) (A)
                 (A)
       Virtual   (A) (A) (A) (A) (A) (A) (A) (A) (A) (A) (A) (A)
                 (A) (A) (A) (A) (A) (A) (A) (A) (A) (A) (A) (A)
                 (A) (A) (A) (A) (A) (A) (A) (A) (A) (A) (A) (A)
                 (A) (A) (A) (A) (A) (A) (A) (A) (A) (A) (A) (A)
                 (A) (A) (A) (A) (A) (A) (A) (A) (A) (A) (A) (A)
                 (A) (A) (A) (A) (A) (A) (A) (A) (A) (A) (A) (A)
                 (A) (A) (A) (A) (A) (A) (A) (A) (A) (A) (A) (A)
 The electronic state of the initial guess is 1-A.
 Generating alternative initial guess.
 Harris functional with IExCor=  402 diagonalized for initial guess.
 ExpMin= 4.38D-02 ExpMax= 3.05D+03 ExpMxC= 4.57D+02 IAcc=2 IRadAn=         0 AccDes= 0.00D+00
 HarFok:  IExCor=  402 AccDes= 0.00D+00 IRadAn=         0 IDoV= 1
 ScaDFX=  1.000000  1.000000  1.000000  1.000000
 FoFCou: FMM=F IPFlag=           0 FMFlag=      100000 FMFlg1=           0
         NFxFlg=           0 DoJE=T BraDBF=F KetDBF=T FulRan=T
         Omega=  0.000000  0.000000  1.000000  0.000000  0.000000 ICntrl=     500 IOpCl=  0
         NMat0=    1 NMatS0=    1 NMatT0=    0 NMatD0=    1 NMtDS0=    0 NMtDT0=    0
         I1Cent=           4 NGrid=           0.
 Petite list used in FoFCou.
 Harris En= -119.227258207481    
 Leave Link  401 at Fri Jun 21 19:14:47 2024, MaxMem=   33554432 cpu:       1.5
 (Enter /programs/64bit/g09/g09-gfortran/bin/l502.exe)
 Closed shell SCF:
 Requested convergence on RMS density matrix=1.00D-08 within 128 cycles.
 Requested convergence on MAX density matrix=1.00D-06.
 Requested convergence on             energy=1.00D-06.
 No special actions if energy rises.
 Using DIIS extrapolation, IDIIS=  1040.
 Integral symmetry usage will be decided dynamically.
        94447 words used for storage of precomputed grid.
 Keep R1 ints in memory in canonical form, NReq=12357801.
 IEnd=      142142 IEndB=      142142 NGot=    33554432 MDV=    22140528
 LenX=    22140528 LenY=    22130678
 Symmetry not used in FoFDir.
 MinBra= 0 MaxBra= 2 Meth= 1.
 IRaf=       0 NMat=   1 IRICut=       1 DoRegI=T DoRafI=F ISym2E= 0 JSym2E=0.

 Cycle   1  Pass 1  IDiag  1:
 E= -119.149539848562    
 DIIS: error= 7.04D-03 at cycle   1 NSaved=   1.
 NSaved= 1 IEnMin= 1 EnMin= -119.149539848562     IErMin= 1 ErrMin= 7.04D-03
 ErrMax= 7.04D-03 EMaxC= 1.00D-01 BMatC= 5.18D-03 BMatP= 5.18D-03
 IDIUse=3 WtCom= 9.30D-01 WtEn= 7.04D-02
 Coeff-Com:  0.100D+01
 Coeff-En:   0.100D+01
 Coeff:      0.100D+01
 Gap=     0.349 Goal=   None    Shift=    0.000
 GapD=    0.349 DampG=1.000 DampE=1.000 DampFc=1.0000 IDamp=-1.
 RMSDP=1.31D-03 MaxDP=1.64D-02              OVMax= 2.89D-02

 Cycle   2  Pass 1  IDiag  1:
 E= -119.158549793844     Delta-E=       -0.009009945283 Rises=F Damp=F
 DIIS: error= 1.02D-03 at cycle   2 NSaved=   2.
 NSaved= 2 IEnMin= 2 EnMin= -119.158549793844     IErMin= 2 ErrMin= 1.02D-03
 ErrMax= 1.02D-03 EMaxC= 1.00D-01 BMatC= 9.63D-05 BMatP= 5.18D-03
 IDIUse=3 WtCom= 9.90D-01 WtEn= 1.02D-02
 Coeff-Com: -0.425D-01 0.104D+01
 Coeff-En:   0.000D+00 0.100D+01
 Coeff:     -0.420D-01 0.104D+01
 Gap=     0.342 Goal=   None    Shift=    0.000
 RMSDP=2.28D-04 MaxDP=2.81D-03 DE=-9.01D-03 OVMax= 5.21D-03

 Cycle   3  Pass 1  IDiag  1:
 E= -119.158623296134     Delta-E=       -0.000073502289 Rises=F Damp=F
 DIIS: error= 8.56D-04 at cycle   3 NSaved=   3.
 NSaved= 3 IEnMin= 3 EnMin= -119.158623296134     IErMin= 3 ErrMin= 8.56D-04
 ErrMax= 8.56D-04 EMaxC= 1.00D-01 BMatC= 6.38D-05 BMatP= 9.63D-05
 IDIUse=3 WtCom= 9.91D-01 WtEn= 8.56D-03
 Coeff-Com: -0.359D-01 0.483D+00 0.553D+00
 Coeff-En:   0.000D+00 0.148D+00 0.852D+00
 Coeff:     -0.356D-01 0.480D+00 0.556D+00
 Gap=     0.340 Goal=   None    Shift=    0.000
 RMSDP=9.31D-05 MaxDP=1.97D-03 DE=-7.35D-05 OVMax= 2.21D-03

 Cycle   4  Pass 1  IDiag  1:
 E= -119.158684363542     Delta-E=       -0.000061067409 Rises=F Damp=F
 DIIS: error= 2.25D-04 at cycle   4 NSaved=   4.
 NSaved= 4 IEnMin= 4 EnMin= -119.158684363542     IErMin= 4 ErrMin= 2.25D-04
 ErrMax= 2.25D-04 EMaxC= 1.00D-01 BMatC= 3.53D-06 BMatP= 6.38D-05
 IDIUse=3 WtCom= 9.98D-01 WtEn= 2.25D-03
 Coeff-Com: -0.107D-01 0.114D+00 0.241D+00 0.656D+00
 Coeff-En:   0.000D+00 0.000D+00 0.000D+00 0.100D+01
 Coeff:     -0.107D-01 0.114D+00 0.241D+00 0.656D+00
 Gap=     0.341 Goal=   None    Shift=    0.000
 RMSDP=1.98D-05 MaxDP=4.24D-04 DE=-6.11D-05 OVMax= 5.24D-04

 Cycle   5  Pass 1  IDiag  1:
 E= -119.158688094413     Delta-E=       -0.000003730870 Rises=F Damp=F
 DIIS: error= 2.19D-05 at cycle   5 NSaved=   5.
 NSaved= 5 IEnMin= 5 EnMin= -119.158688094413     IErMin= 5 ErrMin= 2.19D-05
 ErrMax= 2.19D-05 EMaxC= 1.00D-01 BMatC= 4.42D-08 BMatP= 3.53D-06
 IDIUse=1 WtCom= 1.00D+00 WtEn= 0.00D+00
 Coeff-Com: -0.866D-03 0.421D-02 0.323D-01 0.152D+00 0.812D+00
 Coeff:     -0.866D-03 0.421D-02 0.323D-01 0.152D+00 0.812D+00
 Gap=     0.341 Goal=   None    Shift=    0.000
 RMSDP=5.67D-06 MaxDP=9.56D-05 DE=-3.73D-06 OVMax= 7.52D-05

 Cycle   6  Pass 1  IDiag  1:
 E= -119.158688142805     Delta-E=       -0.000000048393 Rises=F Damp=F
 DIIS: error= 5.24D-06 at cycle   6 NSaved=   6.
 NSaved= 6 IEnMin= 6 EnMin= -119.158688142805     IErMin= 6 ErrMin= 5.24D-06
 ErrMax= 5.24D-06 EMaxC= 1.00D-01 BMatC= 2.18D-09 BMatP= 4.42D-08
 IDIUse=1 WtCom= 1.00D+00 WtEn= 0.00D+00
 Coeff-Com:  0.152D-03-0.332D-02-0.443D-03 0.194D-01 0.234D+00 0.750D+00
 Coeff:      0.152D-03-0.332D-02-0.443D-03 0.194D-01 0.234D+00 0.750D+00
 Gap=     0.341 Goal=   None    Shift=    0.000
 RMSDP=8.22D-07 MaxDP=1.10D-05 DE=-4.84D-08 OVMax= 1.64D-05

 Cycle   7  Pass 1  IDiag  1:
 E= -119.158688145368     Delta-E=       -0.000000002562 Rises=F Damp=F
 DIIS: error= 4.19D-07 at cycle   7 NSaved=   7.
 NSaved= 7 IEnMin= 7 EnMin= -119.158688145368     IErMin= 7 ErrMin= 4.19D-07
 ErrMax= 4.19D-07 EMaxC= 1.00D-01 BMatC= 2.39D-11 BMatP= 2.18D-09
 IDIUse=1 WtCom= 1.00D+00 WtEn= 0.00D+00
 Coeff-Com:  0.362D-04-0.570D-03-0.764D-03 0.708D-03 0.222D-01 0.130D+00
 Coeff-Com:  0.848D+00
 Coeff:      0.362D-04-0.570D-03-0.764D-03 0.708D-03 0.222D-01 0.130D+00
 Coeff:      0.848D+00
 Gap=     0.341 Goal=   None    Shift=    0.000
 RMSDP=1.45D-07 MaxDP=2.57D-06 DE=-2.56D-09 OVMax= 1.59D-06

 Cycle   8  Pass 1  IDiag  1:
 E= -119.158688145389     Delta-E=       -0.000000000022 Rises=F Damp=F
 DIIS: error= 1.58D-07 at cycle   8 NSaved=   8.
 NSaved= 8 IEnMin= 8 EnMin= -119.158688145389     IErMin= 8 ErrMin= 1.58D-07
 ErrMax= 1.58D-07 EMaxC= 1.00D-01 BMatC= 4.67D-12 BMatP= 2.39D-11
 IDIUse=1 WtCom= 1.00D+00 WtEn= 0.00D+00
 Coeff-Com:  0.125D-04-0.169D-03-0.350D-03-0.248D-03 0.336D-02 0.393D-01
 Coeff-Com:  0.396D+00 0.563D+00
 Coeff:      0.125D-04-0.169D-03-0.350D-03-0.248D-03 0.336D-02 0.393D-01
 Coeff:      0.396D+00 0.563D+00
 Gap=     0.341 Goal=   None    Shift=    0.000
 RMSDP=2.74D-08 MaxDP=5.75D-07 DE=-2.16D-11 OVMax= 6.14D-07

 Cycle   9  Pass 1  IDiag  1:
 E= -119.158688145394     Delta-E=       -0.000000000005 Rises=F Damp=F
 DIIS: error= 3.08D-08 at cycle   9 NSaved=   9.
 NSaved= 9 IEnMin= 9 EnMin= -119.158688145394     IErMin= 9 ErrMin= 3.08D-08
 ErrMax= 3.08D-08 EMaxC= 1.00D-01 BMatC= 1.76D-13 BMatP= 4.67D-12
 IDIUse=1 WtCom= 1.00D+00 WtEn= 0.00D+00
 Coeff-Com:  0.135D-05-0.124D-04-0.599D-04-0.158D-03-0.665D-03 0.356D-02
 Coeff-Com:  0.700D-01 0.202D+00 0.725D+00
 Coeff:      0.135D-05-0.124D-04-0.599D-04-0.158D-03-0.665D-03 0.356D-02
 Coeff:      0.700D-01 0.202D+00 0.725D+00
 Gap=     0.341 Goal=   None    Shift=    0.000
 RMSDP=6.55D-09 MaxDP=1.00D-07 DE=-4.52D-12 OVMax= 1.11D-07

 SCF Done:  E(RB3LYP) =  -119.158688145     A.U. after    9 cycles
             Convg  =    0.6549D-08             -V/T =  2.0106
 KE= 1.179083917538D+02 PE=-4.393339815965D+02 EE= 1.198439432603D+02
 Leave Link  502 at Fri Jun 21 19:15:02 2024, MaxMem=   33554432 cpu:      15.4
 (Enter /programs/64bit/g09/g09-gfortran/bin/l701.exe)
 Compute integral first derivatives.
 ... and contract with generalized density number  0.
 Leave Link  701 at Fri Jun 21 19:15:02 2024, MaxMem=   33554432 cpu:       0.0
 (Enter /programs/64bit/g09/g09-gfortran/bin/l702.exe)
 L702 exits ... SP integral derivatives will be done elsewhere.
 Leave Link  702 at Fri Jun 21 19:15:02 2024, MaxMem=   33554432 cpu:       0.0
 (Enter /programs/64bit/g09/g09-gfortran/bin/l703.exe)
 Compute integral first derivatives, UseDBF=F ICtDFT=           0.
 Integral derivatives from FoFDir, PRISM(SPDF).
 Calling FoFJK, ICntrl=      2127 FMM=F ISym2X=0 I1Cent= 0 IOpClX= 0 NMat=1 NMatS=1 NMatT=0.
 FoFCou: FMM=F IPFlag=           0 FMFlag=      100000 FMFlg1=         800
         NFxFlg=           0 DoJE=F BraDBF=F KetDBF=F FulRan=T
         Omega=  0.000000  0.000000  1.000000  0.000000  0.000000 ICntrl=    2127 IOpCl=  0
         NMat0=    1 NMatS0=    1 NMatT0=    0 NMatD0=    1 NMtDS0=    0 NMtDT0=    0
         I1Cent=           0 NGrid=           0.
 Symmetry not used in FoFCou.
 Leave Link  703 at Fri Jun 21 19:15:07 2024, MaxMem=   33554432 cpu:       4.3
 (Enter /programs/64bit/g09/g09-gfortran/bin/l716.exe)
 Dipole        =-4.46318446D-04 3.48600436D-02 4.60712423D-03
 ***** Axes restored to original set *****
 -------------------------------------------------------------------
 Center     Atomic                   Forces (Hartrees/Bohr)
 Number     Number              X              Y              Z
 -------------------------------------------------------------------
      1        6          -0.000215495    0.000051053   -0.007741793
      2        6           0.002212422    0.005730601    0.002019103
      3        1           0.000491333   -0.000114649    0.002253039
      4        1          -0.000967145   -0.000589949    0.000722564
      5        1          -0.000496440    0.000803466    0.000181967
[...]
   R10        2.07247   0.00001   0.00003   0.00001   0.00005   2.07251
    A1        1.93908  -0.00000   0.00006  -0.00004   0.00002   1.93911
    A2        1.93896   0.00002   0.00014   0.00001   0.00015   1.93912
    A3        1.94711  -0.00000   0.00010  -0.00008   0.00003   1.94714
    A4        1.87611  -0.00001  -0.00011   0.00001  -0.00010   1.87601
    A5        1.87971   0.00000  -0.00009   0.00007  -0.00002   1.87968
    A6        1.87980  -0.00001  -0.00013   0.00003  -0.00009   1.87971
    A7        1.90892   0.00002   0.00011   0.00008   0.00018   1.90910
    A8        1.90897   0.00001   0.00001   0.00011   0.00012   1.90909
    A9        1.97163  -0.00001   0.00024  -0.00011   0.00013   1.97176
   A10        1.85251  -0.00003  -0.00045  -0.00024  -0.00070   1.85181
   A11        1.90906   0.00001   0.00008  -0.00000   0.00007   1.90913
   A12        1.90895   0.00001  -0.00003   0.00017   0.00014   1.90910
   A13        1.93930  -0.00003  -0.00012  -0.00005  -0.00017   1.93912
   A14        1.94707   0.00001   0.00014  -0.00007   0.00006   1.94714
   A15        1.93883   0.00003   0.00020   0.00007   0.00026   1.93909
   A16        1.87974   0.00001  -0.00003   0.00001  -0.00002   1.87972
   A17        1.87609  -0.00000  -0.00006  -0.00001  -0.00007   1.87602
   A18        1.87974  -0.00001  -0.00013   0.00007  -0.00007   1.87968
    D1        1.08729   0.00001   0.00070  -0.00002   0.00068   1.08797
    D2        3.10928  -0.00001   0.00022  -0.00021   0.00002   3.10930
    D3       -1.04335  -0.00000   0.00036   0.00001   0.00037  -1.04299
    D4       -3.10818   0.00001   0.00069  -0.00002   0.00067  -3.10751
    D5       -1.08619  -0.00001   0.00022  -0.00021   0.00001  -1.08618
    D6        1.04436  -0.00000   0.00035   0.00001   0.00036   1.04472
    D7       -1.01043   0.00001   0.00070  -0.00002   0.00068  -1.00975
    D8        1.01156  -0.00001   0.00022  -0.00021   0.00001   1.01157
    D9       -3.14107  -0.00000   0.00036   0.00001   0.00036  -3.14071
   D10        1.04518  -0.00000  -0.00055  -0.00015  -0.00070   1.04448
   D11       -3.14013  -0.00001  -0.00057  -0.00022  -0.00080  -3.14093
   D12       -1.04256   0.00000  -0.00052  -0.00014  -0.00066  -1.04322
   D13       -1.08539  -0.00002  -0.00090  -0.00017  -0.00107  -1.08646
   D14        1.01249  -0.00002  -0.00093  -0.00024  -0.00117   1.01132
   D15        3.11006  -0.00002  -0.00088  -0.00016  -0.00104   3.10902
   D16       -3.10745   0.00001  -0.00039   0.00003  -0.00036  -3.10781
   D17       -1.00957   0.00001  -0.00042  -0.00004  -0.00046  -1.01003
   D18        1.08800   0.00002  -0.00036   0.00004  -0.00032   1.08767
         Item               Value     Threshold  Converged?
 Maximum Force            0.000045     0.000450     YES
 RMS     Force            0.000017     0.000300     YES
 Maximum Displacement     0.001038     0.001800     YES
 RMS     Displacement     0.000374     0.001200     YES
 Predicted change in Energy=-6.203262D-08
 Optimization completed.
    -- Stationary point found.
                           ----------------------------
                           !   Optimized Parameters   !
                           ! (Angstroms and Degrees)  !
 --------------------------                            --------------------------
 ! Name  Definition              Value          Derivative Info.                !
 --------------------------------------------------------------------------------
 ! R1    R(1,2)                  1.5333         -DE/DX =    0.0                 !
 ! R2    R(1,3)                  1.0967         -DE/DX =    0.0                 !
 ! R3    R(1,4)                  1.0967         -DE/DX =    0.0                 !
 ! R4    R(1,5)                  1.0957         -DE/DX =    0.0                 !
 ! R5    R(2,6)                  1.098          -DE/DX =    0.0                 !
 ! R6    R(2,7)                  1.098          -DE/DX =    0.0                 !
 ! R7    R(2,8)                  1.5332         -DE/DX =    0.0                 !
 ! R8    R(8,9)                  1.0967         -DE/DX =    0.0                 !
 ! R9    R(8,10)                 1.0957         -DE/DX =    0.0                 !
 ! R10   R(8,11)                 1.0967         -DE/DX =    0.0                 !
 ! A1    A(2,1,3)              111.1014         -DE/DX =    0.0                 !
 ! A2    A(2,1,4)              111.0945         -DE/DX =    0.0                 !
 ! A3    A(2,1,5)              111.5612         -DE/DX =    0.0                 !
 ! A4    A(3,1,4)              107.4933         -DE/DX =    0.0                 !
 ! A5    A(3,1,5)              107.6993         -DE/DX =    0.0                 !
 ! A6    A(4,1,5)              107.7045         -DE/DX =    0.0                 !
 ! A7    A(1,2,6)              109.373          -DE/DX =    0.0                 !
 ! A8    A(1,2,7)              109.3759         -DE/DX =    0.0                 !
 ! A9    A(1,2,8)              112.9663         -DE/DX =    0.0                 !
 ! A10   A(6,2,7)              106.1409         -DE/DX =    0.0                 !
 ! A11   A(6,2,8)              109.3808         -DE/DX =    0.0                 !
 ! A12   A(7,2,8)              109.375          -DE/DX =    0.0                 !
 ! A13   A(2,8,9)              111.1135         -DE/DX =    0.0                 !
 ! A14   A(2,8,10)             111.5591         -DE/DX =    0.0                 !
 ! A15   A(2,8,11)             111.0866         -DE/DX =    0.0                 !
 ! A16   A(9,8,10)             107.7012         -DE/DX =    0.0                 !
 ! A17   A(9,8,11)             107.4921         -DE/DX =    0.0                 !
 ! A18   A(10,8,11)            107.7014         -DE/DX =    0.0                 !
 ! D1    D(3,1,2,6)             62.2972         -DE/DX =    0.0                 !
 ! D2    D(3,1,2,7)            178.1486         -DE/DX =    0.0                 !
 ! D3    D(3,1,2,8)            -59.7798         -DE/DX =    0.0                 !
 ! D4    D(4,1,2,6)           -178.0856         -DE/DX =    0.0                 !
 ! D5    D(4,1,2,7)            -62.2342         -DE/DX =    0.0                 !
 ! D6    D(4,1,2,8)             59.8374         -DE/DX =    0.0                 !
 ! D7    D(5,1,2,6)            -57.8933         -DE/DX =    0.0                 !
 ! D8    D(5,1,2,7)             57.9582         -DE/DX =    0.0                 !
 ! D9    D(5,1,2,8)           -179.9702         -DE/DX =    0.0                 !
 ! D10   D(1,2,8,9)             59.8842         -DE/DX =    0.0                 !
 ! D11   D(1,2,8,10)          -179.916          -DE/DX =    0.0                 !
 ! D12   D(1,2,8,11)           -59.7344         -DE/DX =    0.0                 !
 ! D13   D(6,2,8,9)            -62.1884         -DE/DX =    0.0                 !
 ! D14   D(6,2,8,10)            58.0114         -DE/DX =    0.0                 !
 ! D15   D(6,2,8,11)           178.1931         -DE/DX =    0.0                 !
 ! D16   D(7,2,8,9)           -178.0437         -DE/DX =    0.0                 !
 ! D17   D(7,2,8,10)           -57.8439         -DE/DX =    0.0                 !
 ! D18   D(7,2,8,11)            62.3377         -DE/DX =    0.0                 !
 --------------------------------------------------------------------------------
 GradGradGradGradGradGradGradGradGradGradGradGradGradGradGradGradGradGrad

 Largest change from initial coordinates is atom    7       0.196 Angstoms.
 Leave Link  103 at Fri Jun 21 19:16:28 2024, MaxMem=   33554432 cpu:       0.0
 (Enter /programs/64bit/g09/g09-gfortran/bin/l202.exe)
                          Input orientation:                          
 ---------------------------------------------------------------------
 Center     Atomic      Atomic             Coordinates (Angstroms)
 Number     Number       Type             X           Y           Z
 ---------------------------------------------------------------------
      1          6           0       -0.004525    0.014444   -0.057265
      2          6           0       -0.122977    0.058643    1.470777
      3          1           0        1.042577   -0.079508   -0.369565
      4          1           0       -0.550025   -0.842370   -0.470823
      5          1           0       -0.409698    0.921716   -0.518939
      6          1           0        0.403170    0.943971    1.851411
      7          1           0       -1.176979    0.186032    1.750913
      8          6           0        0.435892   -1.196824    2.150717
      9          1           0        1.498892   -1.332422    1.917456
     10          1           0        0.338398   -1.141637    3.240625
     11          1           0       -0.092918   -2.096586    1.813756
 ---------------------------------------------------------------------
                    Distance matrix (angstroms):
                    1          2          3          4          5
     1  C    0.000000
     2  C    1.533264   0.000000
     3  H    1.096713   2.182764   0.000000
     4  H    1.096691   2.182661   1.768783   0.000000
     5  H    1.095650   2.187710   1.770272   1.770312   0.000000
     6  H    2.161777   1.097961   2.527663   3.080969   2.505955
     7  H    2.161851   1.098009   3.081130   2.527211   2.506428
     8  C    2.556623   1.533248   2.822814   2.823145   3.511452
     9  H    2.823798   2.182898   2.647354   3.184665   3.828821
    10  H    3.511438   2.187670   3.828506   3.828016   4.353320
    11  H    2.822230   2.182556   3.181956   2.645999   3.827788
                    6          7          8          9         10
     6  H    0.000000
     7  H    1.755404   0.000000
     8  C    2.161864   2.161825   0.000000
     9  H    2.527238   3.081188   1.096706   0.000000
    10  H    2.506765   2.505656   1.095650   1.770288   0.000000
    11  H    3.080992   2.527743   1.096702   1.768773   1.770287
                   11
    11  H    0.000000
 Stoichiometry    C3H8
 Framework group  C1[X(C3H8)]
 Deg. of freedom    27
 Full point group                 C1      NOp   1
 Largest Abelian subgroup         C1      NOp   1
 Largest concise Abelian subgroup C1      NOp   1
                         Standard orientation:                         
 ---------------------------------------------------------------------
 Center     Atomic      Atomic             Coordinates (Angstroms)
 Number     Number       Type             X           Y           Z
 ---------------------------------------------------------------------
      1          6           0        1.278313   -0.259966   -0.000009
      2          6           0       -0.000006    0.586674    0.000038
      3          1           0        1.323141   -0.907381    0.884086
      4          1           0        1.323497   -0.906509   -0.884696
      5          1           0        2.176672    0.367250    0.000535
      6          1           0        0.000089    1.246353    0.877729
      7          1           0       -0.000026    1.246404   -0.877675
      8          6           0       -1.278310   -0.259960    0.000019
      9          1           0       -1.324212   -0.906112    0.884973
     10          1           0       -2.176647    0.367287   -0.001440
     11          1           0       -1.322501   -0.907780   -0.883798
 ---------------------------------------------------------------------
 Rotational constants (GHZ):     29.4278691      8.3487737      7.3999268
 Leave Link  202 at Fri Jun 21 19:16:28 2024, MaxMem=   33554432 cpu:       0.0
 (Enter /programs/64bit/g09/g09-gfortran/bin/l601.exe)
 Copying SCF densities to generalized density rwf, IOpCl= 0 IROHF=0.

 **********************************************************************

            Population analysis using the SCF density.

 **********************************************************************

 Orbital symmetries:
       Occupied  (A) (A) (A) (A) (A) (A) (A) (A) (A) (A) (A) (A)
                 (A)
       Virtual   (A) (A) (A) (A) (A) (A) (A) (A) (A) (A) (A) (A)
                 (A) (A) (A) (A) (A) (A) (A) (A) (A) (A) (A) (A)
                 (A) (A) (A) (A) (A) (A) (A) (A) (A) (A) (A) (A)
                 (A) (A) (A) (A) (A) (A) (A) (A) (A) (A) (A) (A)
                 (A) (A) (A) (A) (A) (A) (A) (A) (A) (A) (A) (A)
                 (A) (A) (A) (A) (A) (A) (A) (A) (A) (A) (A) (A)
                 (A) (A) (A) (A) (A) (A) (A) (A) (A) (A) (A) (A)
 The electronic state is 1-A.
 Alpha  occ. eigenvalues --  -10.18442 -10.17579 -10.17578  -0.77986  -0.68124
 Alpha  occ. eigenvalues --   -0.58541  -0.45644  -0.43607  -0.39840  -0.38133
 Alpha  occ. eigenvalues --   -0.33891  -0.33764  -0.32890
 Alpha virt. eigenvalues --    0.01505   0.03020   0.03497   0.04557   0.06970
 Alpha virt. eigenvalues --    0.07712   0.08257   0.08564   0.09308   0.11344
 Alpha virt. eigenvalues --    0.12338   0.14922   0.19609   0.20076   0.20178
 Alpha virt. eigenvalues --    0.24689   0.25014   0.25298   0.28019   0.31019
 Alpha virt. eigenvalues --    0.33293   0.34652   0.60446   0.62716   0.64139
 Alpha virt. eigenvalues --    0.64731   0.66962   0.69518   0.70618   0.72543
 Alpha virt. eigenvalues --    0.80648   0.91798   0.93483   0.95595   0.96447
 Alpha virt. eigenvalues --    1.00537   1.02754   1.09070   1.10071   1.11065
 Alpha virt. eigenvalues --    1.30449   1.31804   1.38850   1.53684   1.56559
 Alpha virt. eigenvalues --    1.66290   1.69094   1.86097   1.87483   1.94432
 Alpha virt. eigenvalues --    2.04954   2.04958   2.09679   2.12021   2.12154
 Alpha virt. eigenvalues --    2.12253   2.13012   2.25632   2.27915   2.29173
 Alpha virt. eigenvalues --    2.32838   2.42121   2.47354   2.53534   2.64669
 Alpha virt. eigenvalues --    2.69632   2.72514   2.75634   2.82057   2.86690
 Alpha virt. eigenvalues --    2.90190   2.91181   2.91286   3.21791   3.25910
 Alpha virt. eigenvalues --    3.33686   3.35010   3.44426   3.47911   3.50439
 Alpha virt. eigenvalues --    3.56895   4.31833   4.50288   4.64305
          Condensed to atoms (all electrons):
              1          2          3          4          5          6
     1  C    5.122576   0.267745   0.410787   0.410804   0.405535  -0.038797
     2  C    0.267745   5.145651  -0.054382  -0.054375  -0.051916   0.397248
     3  H    0.410787  -0.054382   0.560915  -0.031343  -0.028594  -0.005053
     4  H    0.410804  -0.054375  -0.031343   0.560906  -0.028584   0.004888
     5  H    0.405535  -0.051916  -0.028594  -0.028584   0.558169  -0.003410
     6  H   -0.038797   0.397248  -0.005053   0.004888  -0.003410   0.584113
     7  H   -0.038786   0.397311   0.004887  -0.005064  -0.003402  -0.034535
     8  C   -0.056152   0.267751  -0.002378  -0.002405   0.009399  -0.038758
     9  H   -0.002394  -0.054322   0.003263  -0.000469   0.000012  -0.005068
    10  H    0.009401  -0.051925   0.000013   0.000013  -0.000139  -0.003394
    11  H   -0.002389  -0.054433  -0.000472   0.003272   0.000013   0.004888
              7          8          9         10         11
     1  C   -0.038786  -0.056152  -0.002394   0.009401  -0.002389
     2  C    0.397311   0.267751  -0.054322  -0.051925  -0.054433
     3  H    0.004887  -0.002378   0.003263   0.000013  -0.000472
     4  H   -0.005064  -0.002405  -0.000469   0.000013   0.003272
     5  H   -0.003402   0.009399   0.000012  -0.000139   0.000013
     6  H   -0.034535  -0.038758  -0.005068  -0.003394   0.004888
     7  H    0.584116  -0.038817   0.004885  -0.003419  -0.005048
     8  C   -0.038817   5.122557   0.410779   0.405538   0.410815
     9  H    0.004885   0.410779   0.560872  -0.028588  -0.031344
    10  H   -0.003419   0.405538  -0.028588   0.558171  -0.028590
    11  H   -0.005048   0.410815  -0.031344  -0.028590   0.560946
 Mulliken atomic charges:
              1
     1  C   -0.488330
     2  C   -0.154352
     3  H    0.142356
     4  H    0.142356
     5  H    0.142917
     6  H    0.137877
     7  H    0.137873
     8  C   -0.488330
     9  H    0.142374
    10  H    0.142918
    11  H    0.142341
 Sum of Mulliken atomic charges =  -0.00000
 Mulliken charges with hydrogens summed into heavy atoms:
              1
     1  C   -0.060700
     2  C    0.121398
     8  C   -0.060698
 Sum of Mulliken charges with hydrogens summed into heavy atoms =  -0.00000
 Electronic spatial extent (au):  <R**2>=            229.0541
 Charge=             -0.0000 electrons
 Dipole moment (field-independent basis, Debye):
    X=             -0.0000    Y=              0.0863    Z=              0.0000  Tot=              0.0863
 Quadrupole moment (field-independent basis, Debye-Ang):
   XX=            -22.5547   YY=            -22.2066   ZZ=            -21.7144
   XY=              0.0002   XZ=              0.0001   YZ=             -0.0003
 Traceless Quadrupole moment (field-independent basis, Debye-Ang):
   XX=             -0.3961   YY=             -0.0480   ZZ=              0.4442
   XY=              0.0002   XZ=              0.0001   YZ=             -0.0003
 Octapole moment (field-independent basis, Debye-Ang**2):
  XXX=             -0.0000  YYY=              0.3995  ZZZ=              0.0011  XYY=             -0.0001
  XXY=              1.4704  XXZ=              0.0008  XZZ=              0.0000  YZZ=             -0.4092
  YYZ=             -0.0004  XYZ=              0.0018
 Hexadecapole moment (field-independent basis, Debye-Ang**3):
 XXXX=           -211.8609 YYYY=            -75.2184 ZZZZ=            -46.2304 XXXY=              0.0005
 XXXZ=              0.0042 YYYX=              0.0004 YYYZ=              0.0002 ZZZX=             -0.0047
 ZZZY=             -0.0007 XXYY=            -47.2717 XXZZ=            -43.8582 YYZZ=            -18.3198
 XXYZ=             -0.0033 YYXZ=              0.0015 ZZXY=              0.0002
 N-N= 8.223517881069D+01 E-N=-4.389449057133D+02  KE= 1.178841685905D+02
 No NMR shielding tensors so no spin-rotation constants.
 Leave Link  601 at Fri Jun 21 19:16:28 2024, MaxMem=   33554432 cpu:       0.1
 (Enter /programs/64bit/g09/g09-gfortran/bin/l9999.exe)
 B after Tr=     0.242427   -0.748364    2.200736
         Rot=   -0.643963    0.032158    0.687989    0.333091 Ang= 260.18 deg.
 Final structure in terms of initial Z-matrix:
 C
 C,1,d1
 H,1,d2,2,a1
 H,1,d3,2,a2,3,t1,0
 H,1,d4,2,a3,3,t2,0
 H,2,d5,1,a4,3,t3,0
 H,2,d6,1,a5,6,t4,0
 C,2,d7,1,a6,7,t5,0
 H,8,d8,2,a7,6,t6,0
 H,8,d9,2,a8,9,t7,0
 H,8,d10,2,a9,9,t8,0
      Variables:
 d1=1.53326402
 d2=1.09671335
 d3=1.09669087
 d4=1.09565026
 d5=1.09796086
 d6=1.09800895
 d7=1.5332482
 d8=1.09670643
 d9=1.09565041
 d10=1.09670244
 a1=111.10136368
 a2=111.09448012
 a3=111.5612367
 a4=109.37295177
 a5=109.37592473
 a6=112.96630894
 a7=111.11353294
 a8=111.55914156
 a9=111.08657706
 t1=119.61719494
 t2=-120.19045629
 t3=62.29715585
 t4=115.85147433
 t5=122.07157613
 t6=-62.18836634
 t7=120.19979961
 t8=-119.618542
 1\1\GINC-MOLMOD\FOpt\RB3LYP\6-31+G(d,p)\C3H8\OSPITE\21-Jun-2024\0\\#p 
 B3LYP/6-31+g(d,p) opt\\propano\\0,1\C,-0.0045253294,0.0144443059,-0.05
 72652545\C,-0.1229769454,0.0586434125,1.4707773526\H,1.0425765119,-0.0
 795075066,-0.3695647141\H,-0.5500254953,-0.8423696213,-0.4708233933\H,
 -0.4096979034,0.9217160173,-0.5189390849\H,0.4031704947,0.943971154,1.
 851410665\H,-1.1769786155,0.1860323461,1.7509133814\C,0.435892446,-1.1
 96823526,2.150716928\H,1.4988917756,-1.3324216094,1.9174561891\H,0.338
 3976437,-1.1416371464,3.240624743\H,-0.0929178419,-2.0965862924,1.8137
 556726\\Version=EM64L-G09RevA.02\State=1-A\HF=-119.1591518\RMSD=6.178e
 -09\RMSF=3.919e-05\Dipole=-0.0135854,0.0260693,0.0170213\Quadrupole=0.
 253296,-0.0256316,-0.2276644,0.1632013,-0.019725,0.1148303\PG=C01 [X(C
 3H8)]\\@


 I KNOW YOU BELIEVE YOU UNDERSTAND WHAT YOU THINK I SAID,
 BUT I AM NOT SURE YOU REALIZE THAT WHAT YOU HEARD IS NOT WHAT I MEANT.
 Job cpu time:  0 days  0 hours  2 minutes 26.9 seconds.
 File lengths (MBytes):  RWF=     10 Int=      0 D2E=      0 Chk=      2 Scr=      1
 Normal termination of Gaussian 09 at Fri Jun 21 19:16:29 2024.
