 Entering Gaussian System, Link 0=g09
 Input=c2h6.com
 Output=c2h6.log
 Initial command:
 /programs/64bit/g09/g09-gfortran/bin/l1.exe /data/scratch/Gau-3189.inp -scrdir=/data/scratch/
 Entering Link 1 = /programs/64bit/g09/g09-gfortran/bin/l1.exe PID=      3190.
  
 Copyright (c) 1988,1990,1992,1993,1995,1998,2003,2009, Gaussian, Inc.
                  All Rights Reserved.
  
 This is part of the Gaussian(R) 09 program.  It is based on
 the Gaussian(R) 03 system (copyright 2003, Gaussian, Inc.),
 the Gaussian(R) 98 system (copyright 1998, Gaussian, Inc.),
 the Gaussian(R) 94 system (copyright 1995, Gaussian, Inc.),
 the Gaussian 92(TM) system (copyright 1992, Gaussian, Inc.),
 the Gaussian 90(TM) system (copyright 1990, Gaussian, Inc.),
 the Gaussian 88(TM) system (copyright 1988, Gaussian, Inc.),
 the Gaussian 86(TM) system (copyright 1986, Carnegie Mellon
 University), and the Gaussian 82(TM) system (copyright 1983,
 Carnegie Mellon University). Gaussian is a federally registered
 trademark of Gaussian, Inc.
  
 This software contains proprietary and confidential information,
 including trade secrets, belonging to Gaussian, Inc.
  
 This software is provided under written license and may be
 used, copied, transmitted, or stored only in accord with that
 written license.
  
 The following legend is applicable only to US Government
 contracts under FAR:
  
                    RESTRICTED RIGHTS LEGEND
  
 Use, reproduction and disclosure by the US Government is
 subject to restrictions as set forth in subparagraphs (a)
 and (c) of the Commercial Computer Software - Restricted
 Rights clause in FAR 52.227-19.
  
 Gaussian, Inc.
 340 Quinnipiac St., Bldg. 40, Wallingford CT 06492
  
  
 ---------------------------------------------------------------
 Warning -- This program may not be used in any manner that
 competes with the business of Gaussian, Inc. or will provide
 assistance to any competitor of Gaussian, Inc.  The licensee
 of this program is prohibited from giving any competitor of
 Gaussian, Inc. access to this program.  By using this program,
 the user acknowledges that Gaussian, Inc. is engaged in the
 business of creating and licensing software in the field of
 computational chemistry and represents and warrants to the
 licensee that it is not a competitor of Gaussian, Inc. and that
 it will not use this program in any manner prohibited above.
 ---------------------------------------------------------------
  

 Cite this work as:
 Gaussian 09, Revision A.02,
 M. J. Frisch, G. W. Trucks, H. B. Schlegel, G. E. Scuseria, 
 M. A. Robb, J. R. Cheeseman, G. Scalmani, V. Barone, B. Mennucci, 
 G. A. Petersson, H. Nakatsuji, M. Caricato, X. Li, H. P. Hratchian, 
 A. F. Izmaylov, J. Bloino, G. Zheng, J. L. Sonnenberg, M. Hada, 
 M. Ehara, K. Toyota, R. Fukuda, J. Hasegawa, M. Ishida, T. Nakajima, 
 Y. Honda, O. Kitao, H. Nakai, T. Vreven, J. A. Montgomery, Jr., 
 J. E. Peralta, F. Ogliaro, M. Bearpark, J. J. Heyd, E. Brothers, 
 K. N. Kudin, V. N. Staroverov, R. Kobayashi, J. Normand, 
 K. Raghavachari, A. Rendell, J. C. Burant, S. S. Iyengar, J. Tomasi, 
 M. Cossi, N. Rega, J. M. Millam, M. Klene, J. E. Knox, J. B. Cross, 
 V. Bakken, C. Adamo, J. Jaramillo, R. Gomperts, R. E. Stratmann, 
 O. Yazyev, A. J. Austin, R. Cammi, C. Pomelli, J. W. Ochterski, 
 R. L. Martin, K. Morokuma, V. G. Zakrzewski, G. A. Voth, 
 P. Salvador, J. J. Dannenberg, S. Dapprich, A. D. Daniels, 
 O. Farkas, J. B. Foresman, J. V. Ortiz, J. Cioslowski, 
 and D. J. Fox, Gaussian, Inc., Wallingford CT, 2009.
 
 ******************************************
 Gaussian 09:  EM64L-G09RevA.02 11-Jun-2009
                21-Jun-2024 
 ******************************************
 %chk=tmp
 %mem=100MB
 ------------------------
 #p B3LYP/6-31+g(d,p) opt
 ------------------------
 1/14=-1,18=20,19=15,26=3,38=1/1,3;
 2/9=110,12=2,17=6,18=5,40=1/2;
 3/5=1,6=6,7=111,11=2,16=1,25=1,30=1,71=1,74=-5/1,2,3;
 4//1;
 5/5=2,38=5/2;
 6/7=2,8=2,9=2,10=2,28=1/1;
 7//1,2,3,16;
 1/14=-1,18=20,19=15/3(2);
 2/9=110/2;
 99//99;
 2/9=110/2;
 3/5=1,6=6,7=111,11=2,16=1,25=1,30=1,71=1,74=-5/1,2,3;
 4/5=5,16=3/1;
 5/5=2,38=5/2;
 7//1,2,3,16;
 1/14=-1,18=20,19=15/3(-5);
 2/9=110/2;
 6/7=2,8=2,9=2,10=2,19=2,28=1/1;
 99/9=1/99;
 Leave Link    1 at Fri Jun 21 17:31:42 2024, MaxMem=   13107200 cpu:       0.1
 (Enter /programs/64bit/g09/g09-gfortran/bin/l101.exe)
 ------
 metano
 ------
 Symbolic Z-matrix:
 Charge =  0 Multiplicity = 1
 C1
 H2                   1    d1
 H3                   1    d2       2    a1
 H4                   1    d3       2    a2       3    t1       0
 H5                   1    d4       2    a3       3    t2       0
       Variables:
  d1                    1.09                     
  a1                  109.                       
  t1                  120.                       
  d2                    1.03                     
  a2                  110.                       
  t2                 -120.                       
  d3                    1.05                     
  d4                    1.1                      
  a3                  109.                       
 
 NAtoms=      5 NQM=      5 NQMF=      0 NMic=      0 NMicF=      0 NTot=      5.
                    Isotopes and Nuclear Properties:
 (Nuclear quadrupole moments (NQMom) in fm**2, nuclear magnetic moments (NMagM)
  in nuclear magnetons)

  Atom         1           2           3           4           5
 IAtWgt=          12           1           1           1           1
 AtmWgt=  12.0000000   1.0078250   1.0078250   1.0078250   1.0078250
 NucSpn=           0           1           1           1           1
 AtZEff=   0.0000000   0.0000000   0.0000000   0.0000000   0.0000000
 NQMom=    0.0000000   0.0000000   0.0000000   0.0000000   0.0000000
 NMagM=    0.0000000   2.7928460   2.7928460   2.7928460   2.7928460
 Leave Link  101 at Fri Jun 21 17:31:42 2024, MaxMem=   13107200 cpu:       0.2
 (Enter /programs/64bit/g09/g09-gfortran/bin/l103.exe)

 GradGradGradGradGradGradGradGradGradGradGradGradGradGradGradGradGradGrad
 Berny optimization.
 Initialization pass.
                           ----------------------------
                           !    Initial Parameters    !
                           ! (Angstroms and Degrees)  !
 --------------------------                            --------------------------
 ! Name  Definition              Value          Derivative Info.                !
 --------------------------------------------------------------------------------
 ! R1    R(1,2)                  1.09           estimate D2E/DX2                !
 ! R2    R(1,3)                  1.03           estimate D2E/DX2                !
 ! R3    R(1,4)                  1.05           estimate D2E/DX2                !
 ! R4    R(1,5)                  1.1            estimate D2E/DX2                !
 ! A1    A(2,1,3)              109.0            estimate D2E/DX2                !
 ! A2    A(2,1,4)              110.0            estimate D2E/DX2                !
 ! A3    A(2,1,5)              109.0            estimate D2E/DX2                !
 ! A4    A(3,1,4)              109.4447         estimate D2E/DX2                !
 ! A5    A(3,1,5)              109.9383         estimate D2E/DX2                !
 ! A6    A(4,1,5)              109.4447         estimate D2E/DX2                !
 ! D1    D(2,1,4,3)           -119.7299         estimate D2E/DX2                !
 ! D2    D(2,1,5,3)            119.4187         estimate D2E/DX2                !
 ! D3    D(2,1,5,4)           -120.3424         estimate D2E/DX2                !
 ! D4    D(3,1,5,4)            120.2389         estimate D2E/DX2                !
 --------------------------------------------------------------------------------
 Trust Radius=3.00D-01 FncErr=1.00D-07 GrdErr=1.00D-06
 Number of steps in this run=  24 maximum allowed number of steps= 100.
 GradGradGradGradGradGradGradGradGradGradGradGradGradGradGradGradGradGrad

 Leave Link  103 at Fri Jun 21 17:31:43 2024, MaxMem=   13107200 cpu:       0.0
 (Enter /programs/64bit/g09/g09-gfortran/bin/l202.exe)
                          Input orientation:                          
 ---------------------------------------------------------------------
 Center     Atomic      Atomic             Coordinates (Angstroms)
 Number     Number       Type             X           Y           Z
 ---------------------------------------------------------------------
      1          6           0        0.000000    0.000000    0.000000
      2          1           0        0.000000    0.000000    1.090000
      3          1           0        0.973884    0.000000   -0.335335
      4          1           0       -0.493339   -0.854488   -0.359121
      5          1           0       -0.520035    0.900727   -0.358125
 ---------------------------------------------------------------------
                    Distance matrix (angstroms):
                    1          2          3          4          5
     1  C    0.000000
     2  H    1.090000   0.000000
     3  H    1.030000   1.726277   0.000000
     4  H    1.050000   1.753136   1.698075   0.000000
     5  H    1.100000   1.782922   1.744599   1.755418   0.000000
 Stoichiometry    CH4
 Framework group  C1[X(CH4)]
 Deg. of freedom     9
 Full point group                 C1      NOp   1
 Largest Abelian subgroup         C1      NOp   1
 Largest concise Abelian subgroup C1      NOp   1
                         Standard orientation:                         
 ---------------------------------------------------------------------
 Center     Atomic      Atomic             Coordinates (Angstroms)
 Number     Number       Type             X           Y           Z
 ---------------------------------------------------------------------
      1          6           0        0.001713    0.006366    0.002743
      2          1           0        0.763439   -0.733823   -0.242196
      3          1           0        0.164913    0.351575    0.959349
      4          1           0        0.051267    0.809443   -0.671877
      5          1           0       -0.989897   -0.465388   -0.061732
 ---------------------------------------------------------------------
 Rotational constants (GHZ):    168.9202733    165.6661572    160.3698003
 Leave Link  202 at Fri Jun 21 17:31:43 2024, MaxMem=   13107200 cpu:       0.0
 (Enter /programs/64bit/g09/g09-gfortran/bin/l301.exe)
 Standard basis: 6-31+G(d,p) (6D, 7F)
 Ernie: Thresh=  0.10000D-02 Tol=  0.10000D-05 Strict=F.
 There are    39 symmetry adapted basis functions of A   symmetry.
 Integral buffers will be    131072 words long.
 Raffenetti 2 integral format.
 Two-electron integral symmetry is turned on.
    39 basis functions,    60 primitive gaussians,    39 cartesian basis functions
     5 alpha electrons        5 beta electrons
       nuclear repulsion energy        13.7273810915 Hartrees.
 IExCor=  402 DFT=T Ex+Corr=B3LYP ExCW=0 ScaHFX=  0.200000
 ScaDFX=  0.800000  0.720000  1.000000  0.810000 ScalE2=  1.000000  1.000000
 IRadAn=      0 IRanWt=     -1 IRanGd=            0 ICorTp=0
 NAtoms=    5 NActive=    5 NUniq=    5 SFac= 7.50D-01 NAtFMM=   80 NAOKFM=F Big=F
 Leave Link  301 at Fri Jun 21 17:31:43 2024, MaxMem=   13107200 cpu:       0.1
 (Enter /programs/64bit/g09/g09-gfortran/bin/l302.exe)
 NPDir=0 NMtPBC=     1 NCelOv=     1 NCel=       1 NClECP=     1 NCelD=      1
         NCelK=      1 NCelE2=     1 NClLst=     1 CellRange=     0.0.
 One-electron integrals computed using PRISM.
 NBasis=    39 RedAO= T  NBF=    39
 NBsUse=    39 1.00D-06 NBFU=    39
 Precomputing XC quadrature grid using
 IXCGrd= 2 IRadAn=           0 IRanWt=          -1 IRanGd=           0 AccXCQ= 1.00D-10.
 NRdTot=     319 NPtTot=       40280 NUsed=       42591 NTot=       42623
 NSgBfM=    39    39    39    39    39 NAtAll=     5     5.
 Leave Link  302 at Fri Jun 21 17:31:44 2024, MaxMem=   13107200 cpu:       0.0
 (Enter /programs/64bit/g09/g09-gfortran/bin/l303.exe)
 DipDrv:  MaxL=1.
 Leave Link  303 at Fri Jun 21 17:31:44 2024, MaxMem=   13107200 cpu:       0.0
 (Enter /programs/64bit/g09/g09-gfortran/bin/l401.exe)
 Harris functional with IExCor=  402 diagonalized for initial guess.
 ExpMin= 4.38D-02 ExpMax= 3.05D+03 ExpMxC= 4.57D+02 IAcc=2 IRadAn=         0 AccDes= 0.00D+00
 HarFok:  IExCor=  402 AccDes= 0.00D+00 IRadAn=         0 IDoV= 1
 ScaDFX=  1.000000  1.000000  1.000000  1.000000
 FoFCou: FMM=F IPFlag=           0 FMFlag=      100000 FMFlg1=           0
         NFxFlg=           0 DoJE=T BraDBF=F KetDBF=T FulRan=T
         Omega=  0.000000  0.000000  1.000000  0.000000  0.000000 ICntrl=     500 IOpCl=  0
         NMat0=    1 NMatS0=    1 NMatT0=    0 NMatD0=    1 NMtDS0=    0 NMtDT0=    0
         I1Cent=           4 NGrid=           0.
 Petite list used in FoFCou.
 Harris En= -40.5788706628215    
 Initial guess orbital symmetries:
       Occupied  (A) (A) (A) (A) (A)
       Virtual   (A) (A) (A) (A) (A) (A) (A) (A) (A) (A) (A) (A)
                 (A) (A) (A) (A) (A) (A) (A) (A) (A) (A) (A) (A)
                 (A) (A) (A) (A) (A) (A) (A) (A) (A) (A)
 The electronic state of the initial guess is 1-A.
 Leave Link  401 at Fri Jun 21 17:31:45 2024, MaxMem=   13107200 cpu:       0.5
 (Enter /programs/64bit/g09/g09-gfortran/bin/l502.exe)
 Closed shell SCF:
 Requested convergence on RMS density matrix=1.00D-08 within 128 cycles.
 Requested convergence on MAX density matrix=1.00D-06.
 Requested convergence on             energy=1.00D-06.
 No special actions if energy rises.
 Using DIIS extrapolation, IDIIS=  1040.
 Integral symmetry usage will be decided dynamically.
        42533 words used for storage of precomputed grid.
 Keep R1 ints in memory in canonical form, NReq=1229632.
 IEnd=       65776 IEndB=       65776 NGot=    13107200 MDV=    12755007
 LenX=    12755007 LenY=    12753045
 Symmetry not used in FoFDir.
 MinBra= 0 MaxBra= 2 Meth= 1.
 IRaf=       0 NMat=   1 IRICut=       1 DoRegI=T DoRafI=F ISym2E= 0 JSym2E=0.

 Cycle   1  Pass 1  IDiag  1:
 E= -40.4185349479583    
 DIIS: error= 5.06D-02 at cycle   1 NSaved=   1.
 NSaved= 1 IEnMin= 1 EnMin= -40.4185349479583     IErMin= 1 ErrMin= 5.06D-02
 ErrMax= 5.06D-02 EMaxC= 1.00D-01 BMatC= 9.52D-02 BMatP= 9.52D-02
 IDIUse=3 WtCom= 4.94D-01 WtEn= 5.06D-01
 Coeff-Com:  0.100D+01
 Coeff-En:   0.100D+01
 Coeff:      0.100D+01
 Gap=     0.303 Goal=   None    Shift=    0.000
 GapD=    0.303 DampG=1.000 DampE=0.500 DampFc=0.5000 IDamp=-1.
 Damping current iteration by 5.00D-01
 RMSDP=1.27D-02 MaxDP=1.63D-01              OVMax= 2.17D-01

 Cycle   2  Pass 1  IDiag  1:
 E= -40.4656901294911     Delta-E=       -0.047155181533 Rises=F Damp=T
 DIIS: error= 1.22D-02 at cycle   2 NSaved=   2.
 NSaved= 2 IEnMin= 2 EnMin= -40.4656901294911     IErMin= 2 ErrMin= 1.22D-02
 ErrMax= 1.22D-02 EMaxC= 1.00D-01 BMatC= 1.78D-03 BMatP= 9.52D-02
 IDIUse=3 WtCom= 8.78D-01 WtEn= 1.22D-01
 Coeff-Com:  0.725D-01 0.927D+00
 Coeff-En:   0.122D+00 0.878D+00
 Coeff:      0.786D-01 0.921D+00
 Gap=     0.402 Goal=   None    Shift=    0.000
 RMSDP=1.15D-03 MaxDP=9.32D-03 DE=-4.72D-02 OVMax= 1.16D-01

 Cycle   3  Pass 1  IDiag  1:
 E= -40.5220975849174     Delta-E=       -0.056407455426 Rises=F Damp=F
 DIIS: error= 5.11D-04 at cycle   3 NSaved=   3.
 NSaved= 3 IEnMin= 3 EnMin= -40.5220975849174     IErMin= 3 ErrMin= 5.11D-04
 ErrMax= 5.11D-04 EMaxC= 1.00D-01 BMatC= 8.37D-06 BMatP= 1.78D-03
 IDIUse=3 WtCom= 9.95D-01 WtEn= 5.11D-03
 Coeff-Com:  0.488D-02-0.355D-01 0.103D+01
 Coeff-En:   0.000D+00 0.000D+00 0.100D+01
 Coeff:      0.485D-02-0.353D-01 0.103D+01
 Gap=     0.408 Goal=   None    Shift=    0.000
 RMSDP=5.68D-05 MaxDP=8.82D-04 DE=-5.64D-02 OVMax= 6.52D-04

 Cycle   4  Pass 1  IDiag  1:
 E= -40.5221031953685     Delta-E=       -0.000005610451 Rises=F Damp=F
 DIIS: error= 1.01D-04 at cycle   4 NSaved=   4.
 NSaved= 4 IEnMin= 4 EnMin= -40.5221031953685     IErMin= 4 ErrMin= 1.01D-04
 ErrMax= 1.01D-04 EMaxC= 1.00D-01 BMatC= 3.53D-07 BMatP= 8.37D-06
 IDIUse=3 WtCom= 9.99D-01 WtEn= 1.01D-03
 Coeff-Com:  0.202D-02-0.633D-02 0.168D+00 0.836D+00
 Coeff-En:   0.000D+00 0.000D+00 0.000D+00 0.100D+01
 Coeff:      0.202D-02-0.633D-02 0.168D+00 0.836D+00
 Gap=     0.408 Goal=   None    Shift=    0.000
 RMSDP=1.24D-05 MaxDP=1.36D-04 DE=-5.61D-06 OVMax= 2.27D-04

 Cycle   5  Pass 1  IDiag  1:
 E= -40.5221035776782     Delta-E=       -0.000000382310 Rises=F Damp=F
 DIIS: error= 1.75D-05 at cycle   5 NSaved=   5.
 NSaved= 5 IEnMin= 5 EnMin= -40.5221035776782     IErMin= 5 ErrMin= 1.75D-05
 ErrMax= 1.75D-05 EMaxC= 1.00D-01 BMatC= 9.72D-09 BMatP= 3.53D-07
 IDIUse=1 WtCom= 1.00D+00 WtEn= 0.00D+00
 Coeff-Com:  0.475D-03-0.393D-03 0.102D-01 0.177D+00 0.813D+00
 Coeff:      0.475D-03-0.393D-03 0.102D-01 0.177D+00 0.813D+00
 Gap=     0.408 Goal=   None    Shift=    0.000
 RMSDP=2.45D-06 MaxDP=1.84D-05 DE=-3.82D-07 OVMax= 4.23D-05

 Cycle   6  Pass 1  IDiag  1:
 E= -40.5221035886325     Delta-E=       -0.000000010954 Rises=F Damp=F
 DIIS: error= 7.36D-07 at cycle   6 NSaved=   6.
 NSaved= 6 IEnMin= 6 EnMin= -40.5221035886325     IErMin= 6 ErrMin= 7.36D-07
 ErrMax= 7.36D-07 EMaxC= 1.00D-01 BMatC= 2.83D-11 BMatP= 9.72D-09
 IDIUse=1 WtCom= 1.00D+00 WtEn= 0.00D+00
 Coeff-Com: -0.880D-05 0.207D-04-0.166D-02-0.649D-02 0.416D-01 0.967D+00
 Coeff:     -0.880D-05 0.207D-04-0.166D-02-0.649D-02 0.416D-01 0.967D+00
 Gap=     0.408 Goal=   None    Shift=    0.000
 RMSDP=1.83D-07 MaxDP=1.92D-06 DE=-1.10D-08 OVMax= 2.87D-06

 Cycle   7  Pass 1  IDiag  1:
 E= -40.5221035886660     Delta-E=       -0.000000000034 Rises=F Damp=F
 DIIS: error= 4.39D-08 at cycle   7 NSaved=   7.
 NSaved= 7 IEnMin= 7 EnMin= -40.5221035886660     IErMin= 7 ErrMin= 4.39D-08
 ErrMax= 4.39D-08 EMaxC= 1.00D-01 BMatC= 1.06D-13 BMatP= 2.83D-11
 IDIUse=1 WtCom= 1.00D+00 WtEn= 0.00D+00
 Coeff-Com: -0.807D-06-0.241D-06-0.777D-04-0.514D-03-0.809D-03 0.314D-01
 Coeff-Com:  0.970D+00
 Coeff:     -0.807D-06-0.241D-06-0.777D-04-0.514D-03-0.809D-03 0.314D-01
 Coeff:      0.970D+00
 Gap=     0.408 Goal=   None    Shift=    0.000
 RMSDP=1.26D-08 MaxDP=1.09D-07 DE=-3.35D-11 OVMax= 1.65D-07

 Cycle   8  Pass 1  IDiag  1:
 E= -40.5221035886662     Delta-E=       -0.000000000000 Rises=F Damp=F
 DIIS: error= 1.28D-08 at cycle   8 NSaved=   8.
 NSaved= 8 IEnMin= 8 EnMin= -40.5221035886662     IErMin= 8 ErrMin= 1.28D-08
 ErrMax= 1.28D-08 EMaxC= 1.00D-01 BMatC= 7.21D-15 BMatP= 1.06D-13
 IDIUse=1 WtCom= 1.00D+00 WtEn= 0.00D+00
 Coeff-Com:  0.423D-07-0.516D-06 0.155D-04 0.110D-05-0.101D-02-0.119D-01
 Coeff-Com:  0.223D+00 0.789D+00
 Coeff:      0.423D-07-0.516D-06 0.155D-04 0.110D-05-0.101D-02-0.119D-01
 Coeff:      0.223D+00 0.789D+00
 Gap=     0.408 Goal=   None    Shift=    0.000
 RMSDP=2.35D-09 MaxDP=1.57D-08 DE=-1.28D-13 OVMax= 3.52D-08

 SCF Done:  E(RB3LYP) =  -40.5221035887     A.U. after    8 cycles
             Convg  =    0.2350D-08             -V/T =  2.0078
 KE= 4.020807167144D+01 PE=-1.205491380326D+02 EE= 2.609158168092D+01
 Leave Link  502 at Fri Jun 21 17:31:47 2024, MaxMem=   13107200 cpu:       2.1
 (Enter /programs/64bit/g09/g09-gfortran/bin/l601.exe)
 Copying SCF densities to generalized density rwf, IOpCl= 0 IROHF=0.

 **********************************************************************

            Population analysis using the SCF density.

 **********************************************************************

 Orbital symmetries:
       Occupied  (A) (A) (A) (A) (A)
       Virtual   (A) (A) (A) (A) (A) (A) (A) (A) (A) (A) (A) (A)
                 (A) (A) (A) (A) (A) (A) (A) (A) (A) (A) (A) (A)
                 (A) (A) (A) (A) (A) (A) (A) (A) (A) (A)
 The electronic state is 1-A.
 Alpha  occ. eigenvalues --  -10.16175  -0.70417  -0.40420  -0.39846  -0.39124
 Alpha virt. eigenvalues --    0.01719   0.06071   0.06115   0.06181   0.17980
 Alpha virt. eigenvalues --    0.18922   0.19850   0.28756   0.62638   0.63423
 Alpha virt. eigenvalues --    0.64129   0.90709   0.92047   0.93524   1.07218
 Alpha virt. eigenvalues --    1.13420   1.35425   1.35757   2.04721   2.05265
 Alpha virt. eigenvalues --    2.05942   2.07937   2.12036   2.16918   2.64808
 Alpha virt. eigenvalues --    2.65648   2.67266   2.96161   2.97481   3.22795
 Alpha virt. eigenvalues --    3.41236   3.48068   3.54037   4.42331
          Condensed to atoms (all electrons):
              1          2          3          4          5
     1  C    5.029315   0.393975   0.398204   0.397207   0.393336
     2  H    0.393975   0.531609  -0.026291  -0.024722  -0.024544
     3  H    0.398204  -0.026291   0.522139  -0.026927  -0.024984
     4  H    0.397207  -0.024722  -0.026927   0.524027  -0.025140
     5  H    0.393336  -0.024544  -0.024984  -0.025140   0.532685
 Mulliken atomic charges:
              1
     1  C   -0.612036
     2  H    0.149974
     3  H    0.157860
     4  H    0.155555
     5  H    0.148648
 Sum of Mulliken atomic charges =   0.00000
 Mulliken charges with hydrogens summed into heavy atoms:
              1
     1  C    0.000000
 Sum of Mulliken charges with hydrogens summed into heavy atoms =   0.00000
 Electronic spatial extent (au):  <R**2>=             35.0898
 Charge=              0.0000 electrons
 Dipole moment (field-independent basis, Debye):
    X=              0.0149    Y=              0.0324    Z=              0.0202  Tot=              0.0410
 Quadrupole moment (field-independent basis, Debye-Ang):
   XX=             -8.4242   YY=             -8.4104   ZZ=             -8.4549
   XY=              0.0029   XZ=              0.0213   YZ=             -0.0046
 Traceless Quadrupole moment (field-independent basis, Debye-Ang):
   XX=              0.0056   YY=              0.0195   ZZ=             -0.0251
   XY=              0.0029   XZ=              0.0213   YZ=             -0.0046
 Octapole moment (field-independent basis, Debye-Ang**2):
  XXX=             -0.2697  YYY=              0.2667  ZZZ=              0.4940  XYY=              0.1960
  XXY=             -0.5192  XXZ=             -0.0782  XZZ=              0.1730  YZZ=              0.5024
  YYZ=             -0.2745  XYZ=              0.0895
 Hexadecapole moment (field-independent basis, Debye-Ang**3):
 XXXX=            -16.7948 YYYY=            -16.7174 ZZZZ=            -15.6606 XXXY=              0.1490
 XXXZ=              0.0061 YYYX=             -0.1801 YYYZ=             -0.2416 ZZZX=              0.1817
 ZZZY=              0.0669 XXYY=             -5.3790 XXZZ=             -5.7677 YYZZ=             -5.2490
 XXYZ=              0.1507 YYXZ=             -0.0804 ZZXY=              0.0460
 N-N= 1.372738109155D+01 E-N=-1.205491381660D+02  KE= 4.020807167144D+01
 No NMR shielding tensors so no spin-rotation constants.
 Leave Link  601 at Fri Jun 21 17:31:47 2024, MaxMem=   13107200 cpu:       0.1
 (Enter /programs/64bit/g09/g09-gfortran/bin/l701.exe)
 Compute integral first derivatives.
 ... and contract with generalized density number  0.
 Leave Link  701 at Fri Jun 21 17:31:48 2024, MaxMem=   13107200 cpu:       0.1
 (Enter /programs/64bit/g09/g09-gfortran/bin/l702.exe)
 L702 exits ... SP integral derivatives will be done elsewhere.
 Leave Link  702 at Fri Jun 21 17:31:48 2024, MaxMem=   13107200 cpu:       0.0
 (Enter /programs/64bit/g09/g09-gfortran/bin/l703.exe)
 Compute integral first derivatives, UseDBF=F ICtDFT=           0.
 Integral derivatives from FoFDir, PRISM(SPDF).
 Calling FoFJK, ICntrl=      2127 FMM=F ISym2X=0 I1Cent= 0 IOpClX= 0 NMat=1 NMatS=1 NMatT=0.
 FoFCou: FMM=F IPFlag=           0 FMFlag=      100000 FMFlg1=         800
         NFxFlg=           0 DoJE=F BraDBF=F KetDBF=F FulRan=T
         Omega=  0.000000  0.000000  1.000000  0.000000  0.000000 ICntrl=    2127 IOpCl=  0
         NMat0=    1 NMatS0=    1 NMatT0=    0 NMatD0=    1 NMtDS0=    0 NMtDT0=    0
         I1Cent=           0 NGrid=           0.
 Symmetry not used in FoFCou.
 Leave Link  703 at Fri Jun 21 17:31:48 2024, MaxMem=   13107200 cpu:       0.7
 (Enter /programs/64bit/g09/g09-gfortran/bin/l716.exe)
 Dipole        = 5.86675754D-03 1.27661072D-02 7.94714438D-03
 ***** Axes restored to original set *****
 -------------------------------------------------------------------
 Center     Atomic                   Forces (Hartrees/Bohr)
 Number     Number              X              Y              Z
 -------------------------------------------------------------------
      1        6          -0.031576960    0.027924203    0.022755257
      2        1          -0.001260718   -0.000299762    0.002262188
      3        1           0.046597246    0.001333821   -0.016604391
      4        1          -0.015997640   -0.025586846   -0.009802484
      5        1           0.002238073   -0.003371416    0.001389430
 -------------------------------------------------------------------
 Cartesian Forces:  Max     0.046597246 RMS     0.019621855
 Leave Link  716 at Fri Jun 21 17:31:49 2024, MaxMem=   13107200 cpu:       0.1
 (Enter /programs/64bit/g09/g09-gfortran/bin/l103.exe)

 GradGradGradGradGradGradGradGradGradGradGradGradGradGradGradGradGradGrad
 Berny optimization.
 Internal  Forces:  Max     0.049464449 RMS     0.015764795
 Search for a local minimum.
 Step number   1 out of a maximum of   24
 All quantities printed in internal units (Hartrees-Bohrs-Radians)
 RMS Force = .15765D-01 SwitMx=.10000D-02 MixMth= 1
 Mixed Optimization -- RFO/linear search
 Second derivative matrix not updated -- first step.
 The second derivative matrix:
                          R1        R2        R3        R4        A1
           R1           0.34813
           R2           0.00000   0.42780
           R3           0.00000   0.00000   0.39877
           R4           0.00000   0.00000   0.00000   0.33682
           A1           0.00000   0.00000   0.00000   0.00000   0.16000
           A2           0.00000   0.00000   0.00000   0.00000   0.00000
           A3           0.00000   0.00000   0.00000   0.00000   0.00000
           A4           0.00000   0.00000   0.00000   0.00000   0.00000
           A5           0.00000   0.00000   0.00000   0.00000   0.00000
           A6           0.00000   0.00000   0.00000   0.00000   0.00000
           D1           0.00000   0.00000   0.00000   0.00000   0.00000
           D2           0.00000   0.00000   0.00000   0.00000   0.00000
           D3           0.00000   0.00000   0.00000   0.00000   0.00000
           D4           0.00000   0.00000   0.00000   0.00000   0.00000
                          A2        A3        A4        A5        A6
           A2           0.16000
           A3           0.00000   0.16000
           A4           0.00000   0.00000   0.16000
           A5           0.00000   0.00000   0.00000   0.16000
           A6           0.00000   0.00000   0.00000   0.00000   0.16000
           D1           0.00000   0.00000   0.00000   0.00000   0.00000
           D2           0.00000   0.00000   0.00000   0.00000   0.00000
           D3           0.00000   0.00000   0.00000   0.00000   0.00000
           D4           0.00000   0.00000   0.00000   0.00000   0.00000
                          D1        D2        D3        D4
           D1           0.00764
           D2           0.00000   0.00230
           D3           0.00000   0.00000   0.00230
           D4           0.00000   0.00000   0.00000   0.00230
     Eigenvalues ---    0.05175   0.05703   0.08824   0.16000   0.16000
     Eigenvalues ---    0.33682   0.34813   0.39877   0.427801000.00000
     Eigenvalues --- 1000.000001000.000001000.000001000.00000
 RFO step:  Lambda=-8.20106151D-03 EMin= 5.17518793D-02
 Linear search not attempted -- first point.
 Iteration  1 RMS(Cart)=  0.03577739 RMS(Int)=  0.00023248
 Iteration  2 RMS(Cart)=  0.00019056 RMS(Int)=  0.00001217
 Iteration  3 RMS(Cart)=  0.00000003 RMS(Int)=  0.00001217
 Variable       Old X    -DE/DX   Delta X   Delta X   Delta X     New X
                                 (Linear)    (Quad)   (Total)
    R1        2.05980   0.00226   0.00000   0.00635   0.00635   2.06615
    R2        1.94642   0.04946   0.00000   0.11345   0.11345   2.05987
    R3        1.98421   0.03169   0.00000   0.07787   0.07787   2.06208
    R4        2.07870  -0.00427   0.00000  -0.01238  -0.01238   2.06632
    A1        1.90241   0.00060   0.00000   0.00794   0.00794   1.91035
    A2        1.91986  -0.00068   0.00000  -0.00766  -0.00768   1.91218
    A3        1.90241   0.00008   0.00000  -0.00339  -0.00342   1.89899
    A4        1.91017   0.00103   0.00000   0.01097   0.01098   1.92115
    A5        1.91879  -0.00108   0.00000  -0.00603  -0.00604   1.91275
    A6        1.91017   0.00005   0.00000  -0.00190  -0.00192   1.90825
    D1       -2.08968  -0.00096   0.00000  -0.01186  -0.01184  -2.10152
    D2        2.08425   0.00013   0.00000   0.00400   0.00400   2.08825
    D3       -2.10037   0.00076   0.00000   0.01258   0.01256  -2.08781
    D4        2.09856   0.00063   0.00000   0.00857   0.00856   2.10713
         Item               Value     Threshold  Converged?
 Maximum Force            0.049464     0.000450     NO 
 RMS     Force            0.015765     0.000300     NO 
 Maximum Displacement     0.095463     0.001800     NO 
 RMS     Displacement     0.035829     0.001200     NO 
 Predicted change in Energy=-4.181692D-03
 GradGradGradGradGradGradGradGradGradGradGradGradGradGradGradGradGradGrad

 Leave Link  103 at Fri Jun 21 17:31:49 2024, MaxMem=   13107200 cpu:       0.0
 (Enter /programs/64bit/g09/g09-gfortran/bin/l202.exe)
                          Input orientation:                          
 ---------------------------------------------------------------------
 Center     Atomic      Atomic             Coordinates (Angstroms)
 Number     Number       Type             X           Y           Z
 ---------------------------------------------------------------------
      1          6           0       -0.005499    0.006173    0.004993
      2          1           0       -0.011946    0.005841    1.098333
      3          1           0        1.024401    0.012569   -0.351996
      4          1           0       -0.524180   -0.880278   -0.363666
      5          1           0       -0.522266    0.901934   -0.350246
 ---------------------------------------------------------------------
                    Distance matrix (angstroms):
                    1          2          3          4          5
     1  C    0.000000
     2  H    1.093360   0.000000
     3  H    1.090035   1.782558   0.000000
     4  H    1.091208   1.784667   1.787573   0.000000
     5  H    1.093449   1.778143   1.784139   1.782264   0.000000
 Stoichiometry    CH4
 Framework group  C1[X(CH4)]
 Deg. of freedom     9
 Full point group                 C1      NOp   1
 Largest Abelian subgroup         C1      NOp   1
 Largest concise Abelian subgroup C1      NOp   1
                         Standard orientation:                         
 ---------------------------------------------------------------------
 Center     Atomic      Atomic             Coordinates (Angstroms)
 Number     Number       Type             X           Y           Z
 ---------------------------------------------------------------------
      1          6           0       -0.000201   -0.002300   -0.000148
      2          1           0       -0.199026    0.664637   -0.843415
      3          1           0       -0.854070   -0.663190    0.149211
      4          1           0        0.897024   -0.589498   -0.202436
      5          1           0        0.157281    0.601853    0.897531
 ---------------------------------------------------------------------
 Rotational constants (GHZ):    158.1125779    157.7600190    157.2063886
 Leave Link  202 at Fri Jun 21 17:31:49 2024, MaxMem=   13107200 cpu:       0.0
 (Enter /programs/64bit/g09/g09-gfortran/bin/l301.exe)
 Standard basis: 6-31+G(d,p) (6D, 7F)
 Ernie: Thresh=  0.10000D-02 Tol=  0.10000D-05 Strict=F.
 There are    39 symmetry adapted basis functions of A   symmetry.
 Integral buffers will be    131072 words long.
 Raffenetti 2 integral format.
 Two-electron integral symmetry is turned on.
    39 basis functions,    60 primitive gaussians,    39 cartesian basis functions
     5 alpha electrons        5 beta electrons
       nuclear repulsion energy        13.4106730051 Hartrees.
 IExCor=  402 DFT=T Ex+Corr=B3LYP ExCW=0 ScaHFX=  0.200000
 ScaDFX=  0.800000  0.720000  1.000000  0.810000 ScalE2=  1.000000  1.000000
 IRadAn=      0 IRanWt=     -1 IRanGd=            0 ICorTp=0
 NAtoms=    5 NActive=    5 NUniq=    5 SFac= 7.50D-01 NAtFMM=   80 NAOKFM=F Big=F
 Leave Link  301 at Fri Jun 21 17:31:49 2024, MaxMem=   13107200 cpu:       0.0
 (Enter /programs/64bit/g09/g09-gfortran/bin/l302.exe)
 NPDir=0 NMtPBC=     1 NCelOv=     1 NCel=       1 NClECP=     1 NCelD=      1
         NCelK=      1 NCelE2=     1 NClLst=     1 CellRange=     0.0.
 One-electron integrals computed using PRISM.
 NBasis=    39 RedAO= T  NBF=    39
 NBsUse=    39 1.00D-06 NBFU=    39
 Precomputing XC quadrature grid using
 IXCGrd= 2 IRadAn=           0 IRanWt=          -1 IRanGd=           0 AccXCQ= 1.00D-10.
 NRdTot=     319 NPtTot=       40572 NUsed=       42883 NTot=       42915
 NSgBfM=    39    39    39    39    39 NAtAll=     5     5.
 Leave Link  302 at Fri Jun 21 17:31:49 2024, MaxMem=   13107200 cpu:       0.0
 (Enter /programs/64bit/g09/g09-gfortran/bin/l303.exe)
 DipDrv:  MaxL=1.
 Leave Link  303 at Fri Jun 21 17:31:49 2024, MaxMem=   13107200 cpu:       0.0
 (Enter /programs/64bit/g09/g09-gfortran/bin/l401.exe)
 Initial guess read from the read-write file.
 B after Tr=     0.000000    0.000000    0.000000
         Rot=    1.000000    0.000000    0.000000    0.000000 Ang=   0.00 deg.
 Guess basis will be translated and rotated to current coordinates.
 Initial guess orbital symmetries:
       Occupied  (A) (A) (A) (A) (A)
       Virtual   (A) (A) (A) (A) (A) (A) (A) (A) (A) (A) (A) (A)
                 (A) (A) (A) (A) (A) (A) (A) (A) (A) (A) (A) (A)
                 (A) (A) (A) (A) (A) (A) (A) (A) (A) (A)
 The electronic state of the initial guess is 1-A.
 Generating alternative initial guess.
 Harris functional with IExCor=  402 diagonalized for initial guess.
 ExpMin= 4.38D-02 ExpMax= 3.05D+03 ExpMxC= 4.57D+02 IAcc=2 IRadAn=         0 AccDes= 0.00D+00
 HarFok:  IExCor=  402 AccDes= 0.00D+00 IRadAn=         0 IDoV= 1
 ScaDFX=  1.000000  1.000000  1.000000  1.000000
 FoFCou: FMM=F IPFlag=           0 FMFlag=      100000 FMFlg1=           0
         NFxFlg=           0 DoJE=T BraDBF=F KetDBF=T FulRan=T
         Omega=  0.000000  0.000000  1.000000  0.000000  0.000000 ICntrl=     500 IOpCl=  0
         NMat0=    1 NMatS0=    1 NMatT0=    0 NMatD0=    1 NMtDS0=    0 NMtDT0=    0
         I1Cent=           4 NGrid=           0.
 Petite list used in FoFCou.
 Harris En= -40.5727370214475    
 Leave Link  401 at Fri Jun 21 17:31:50 2024, MaxMem=   13107200 cpu:       0.6
 (Enter /programs/64bit/g09/g09-gfortran/bin/l502.exe)
 Closed shell SCF:
 Requested convergence on RMS density matrix=1.00D-08 within 128 cycles.
 Requested convergence on MAX density matrix=1.00D-06.
 Requested convergence on             energy=1.00D-06.
 No special actions if energy rises.
 Using DIIS extrapolation, IDIIS=  1040.
 Integral symmetry usage will be decided dynamically.
        42825 words used for storage of precomputed grid.
 Keep R1 ints in memory in canonical form, NReq=1229924.
 IEnd=       66068 IEndB=       66068 NGot=    13107200 MDV=    12754715
 LenX=    12754715 LenY=    12752753
 Symmetry not used in FoFDir.
 MinBra= 0 MaxBra= 2 Meth= 1.
 IRaf=       0 NMat=   1 IRICut=       1 DoRegI=T DoRafI=F ISym2E= 0 JSym2E=0.

 Cycle   1  Pass 1  IDiag  1:
 E= -37.6855176778457    
 DIIS: error= 1.53D-01 at cycle   1 NSaved=   1.
 NSaved= 1 IEnMin= 1 EnMin= -37.6855176778457     IErMin= 1 ErrMin= 1.53D-01
 ErrMax= 1.53D-01 EMaxC= 1.00D-01 BMatC= 6.92D-01 BMatP= 6.92D-01
 IDIUse=3 WtCom= 0.00D+00 WtEn= 1.00D+00
 Coeff-Com:  0.100D+01
 Coeff-En:   0.100D+01
 Coeff:      0.100D+01
 Recover alternate guess density for next cycle.
 RMSDP=6.50D-02 MaxDP=5.39D-01              OVMax= 0.00D+00

 Cycle   2  Pass 1  IDiag  1:
 E= -40.4321830288618     Delta-E=       -2.746665351016 Rises=F Damp=F
 DIIS: error= 4.70D-02 at cycle   2 NSaved=   2.
 NSaved= 2 IEnMin= 2 EnMin= -40.4321830288618     IErMin= 2 ErrMin= 4.70D-02
 ErrMax= 4.70D-02 EMaxC= 1.00D-01 BMatC= 8.54D-02 BMatP= 6.92D-01
 IDIUse=3 WtCom= 5.30D-01 WtEn= 4.70D-01
 Coeff-Com:  0.341D-01 0.966D+00
 Coeff-En:   0.000D+00 0.100D+01
 Coeff:      0.181D-01 0.982D+00
 Gap=     0.307 Goal=   None    Shift=    0.000
 RMSDP=1.22D-02 MaxDP=1.54D-01 DE=-2.75D+00 OVMax= 2.08D-01

 Cycle   3  Pass 1  IDiag  1:
 E= -40.3962643524254     Delta-E=        0.035918676436 Rises=F Damp=F
 DIIS: error= 6.16D-02 at cycle   3 NSaved=   3.
 NSaved= 3 IEnMin= 2 EnMin= -40.4321830288618     IErMin= 2 ErrMin= 4.70D-02
 ErrMax= 6.16D-02 EMaxC= 1.00D-01 BMatC= 1.16D-01 BMatP= 8.54D-02
 IDIUse=2 WtCom= 0.00D+00 WtEn= 1.00D+00
 Coeff-En:   0.000D+00 0.576D+00 0.424D+00
 Coeff:      0.000D+00 0.576D+00 0.424D+00
 Gap=     0.396 Goal=   None    Shift=    0.000
 RMSDP=6.07D-03 MaxDP=6.90D-02 DE= 3.59D-02 OVMax= 1.05D-01

 Cycle   4  Pass 1  IDiag  1:
 E= -40.5254559247303     Delta-E=       -0.129191572305 Rises=F Damp=F
 DIIS: error= 4.14D-03 at cycle   4 NSaved=   4.
 NSaved= 4 IEnMin= 4 EnMin= -40.5254559247303     IErMin= 4 ErrMin= 4.14D-03
 ErrMax= 4.14D-03 EMaxC= 1.00D-01 BMatC= 6.75D-04 BMatP= 8.54D-02
 IDIUse=3 WtCom= 9.59D-01 WtEn= 4.14D-02
 Coeff-Com:  0.121D-02 0.303D-01-0.506D-01 0.102D+01
 Coeff-En:   0.000D+00 0.000D+00 0.000D+00 0.100D+01
 Coeff:      0.116D-02 0.291D-01-0.485D-01 0.102D+01
 Gap=     0.408 Goal=   None    Shift=    0.000
 RMSDP=4.36D-04 MaxDP=6.20D-03 DE=-1.29D-01 OVMax= 7.23D-03

 Cycle   5  Pass 1  IDiag  1:
 E= -40.5261179999690     Delta-E=       -0.000662075239 Rises=F Damp=F
 DIIS: error= 1.42D-04 at cycle   5 NSaved=   5.
 NSaved= 5 IEnMin= 5 EnMin= -40.5261179999690     IErMin= 5 ErrMin= 1.42D-04
 ErrMax= 1.42D-04 EMaxC= 1.00D-01 BMatC= 4.98D-07 BMatP= 6.75D-04
 IDIUse=3 WtCom= 9.99D-01 WtEn= 1.42D-03
 Coeff-Com: -0.197D-04 0.334D-02-0.383D-02 0.659D-01 0.935D+00
 Coeff-En:   0.000D+00 0.000D+00 0.000D+00 0.000D+00 0.100D+01
 Coeff:     -0.196D-04 0.333D-02-0.382D-02 0.658D-01 0.935D+00
 Gap=     0.409 Goal=   None    Shift=    0.000
 RMSDP=1.28D-05 MaxDP=1.14D-04 DE=-6.62D-04 OVMax= 2.68D-04

 Cycle   6  Pass 1  IDiag  1:
 E= -40.5261186181924     Delta-E=       -0.000000618223 Rises=F Damp=F
 DIIS: error= 1.35D-05 at cycle   6 NSaved=   6.
 NSaved= 6 IEnMin= 6 EnMin= -40.5261186181924     IErMin= 6 ErrMin= 1.35D-05
 ErrMax= 1.35D-05 EMaxC= 1.00D-01 BMatC= 6.30D-09 BMatP= 4.98D-07
 IDIUse=1 WtCom= 1.00D+00 WtEn= 0.00D+00
 Coeff-Com: -0.152D-05-0.270D-04-0.718D-04-0.247D-02 0.138D-01 0.989D+00
 Coeff:     -0.152D-05-0.270D-04-0.718D-04-0.247D-02 0.138D-01 0.989D+00
 Gap=     0.409 Goal=   None    Shift=    0.000
 RMSDP=1.54D-06 MaxDP=1.95D-05 DE=-6.18D-07 OVMax= 2.67D-05

 Cycle   7  Pass 1  IDiag  1:
 E= -40.5261186241297     Delta-E=       -0.000000005937 Rises=F Damp=F
 DIIS: error= 2.62D-06 at cycle   7 NSaved=   7.
 NSaved= 7 IEnMin= 7 EnMin= -40.5261186241297     IErMin= 7 ErrMin= 2.62D-06
 ErrMax= 2.62D-06 EMaxC= 1.00D-01 BMatC= 1.48D-10 BMatP= 6.30D-09
 IDIUse=1 WtCom= 1.00D+00 WtEn= 0.00D+00
 Coeff-Com:  0.416D-07-0.736D-04 0.427D-04-0.189D-02-0.141D-01 0.272D+00
 Coeff-Com:  0.744D+00
 Coeff:      0.416D-07-0.736D-04 0.427D-04-0.189D-02-0.141D-01 0.272D+00
 Coeff:      0.744D+00
 Gap=     0.409 Goal=   None    Shift=    0.000
 RMSDP=3.24D-07 MaxDP=2.55D-06 DE=-5.94D-09 OVMax= 5.41D-06

 Cycle   8  Pass 1  IDiag  1:
 E= -40.5261186242960     Delta-E=       -0.000000000166 Rises=F Damp=F
 DIIS: error= 9.85D-08 at cycle   8 NSaved=   8.
 NSaved= 8 IEnMin= 8 EnMin= -40.5261186242960     IErMin= 8 ErrMin= 9.85D-08
 ErrMax= 9.85D-08 EMaxC= 1.00D-01 BMatC= 3.79D-13 BMatP= 1.48D-10
 IDIUse=1 WtCom= 1.00D+00 WtEn= 0.00D+00
 Coeff-Com:  0.563D-08-0.928D-06-0.591D-06 0.354D-04-0.311D-03-0.539D-02
 Coeff-Com:  0.192D-01 0.987D+00
 Coeff:      0.563D-08-0.928D-06-0.591D-06 0.354D-04-0.311D-03-0.539D-02
 Coeff:      0.192D-01 0.987D+00
 Gap=     0.409 Goal=   None    Shift=    0.000
 RMSDP=1.84D-08 MaxDP=1.67D-07 DE=-1.66D-10 OVMax= 3.20D-07

 Cycle   9  Pass 1  IDiag  1:
 E= -40.5261186242965     Delta-E=       -0.000000000001 Rises=F Damp=F
 DIIS: error= 3.21D-09 at cycle   9 NSaved=   9.
 NSaved= 9 IEnMin= 9 EnMin= -40.5261186242965     IErMin= 9 ErrMin= 3.21D-09
 ErrMax= 3.21D-09 EMaxC= 1.00D-01 BMatC= 3.02D-16 BMatP= 3.79D-13
 IDIUse=1 WtCom= 1.00D+00 WtEn= 0.00D+00
 Coeff-Com: -0.961D-09 0.168D-06-0.747D-07 0.312D-05 0.305D-04-0.545D-03
 Coeff-Com: -0.201D-02-0.107D-01 0.101D+01
 Coeff:     -0.961D-09 0.168D-06-0.747D-07 0.312D-05 0.305D-04-0.545D-03
 Coeff:     -0.201D-02-0.107D-01 0.101D+01
 Gap=     0.409 Goal=   None    Shift=    0.000
 RMSDP=7.25D-10 MaxDP=6.04D-09 DE=-5.54D-13 OVMax= 8.06D-09

 SCF Done:  E(RB3LYP) =  -40.5261186243     A.U. after    9 cycles
             Convg  =    0.7247D-09             -V/T =  2.0114
 KE= 4.006856005369D+01 PE=-1.198241767426D+02 EE= 2.581882505946D+01
 Leave Link  502 at Fri Jun 21 17:31:51 2024, MaxMem=   13107200 cpu:       1.3
 (Enter /programs/64bit/g09/g09-gfortran/bin/l701.exe)
 Compute integral first derivatives.
 ... and contract with generalized density number  0.
 Leave Link  701 at Fri Jun 21 17:31:52 2024, MaxMem=   13107200 cpu:       0.1
 (Enter /programs/64bit/g09/g09-gfortran/bin/l702.exe)
 L702 exits ... SP integral derivatives will be done elsewhere.
 Leave Link  702 at Fri Jun 21 17:31:52 2024, MaxMem=   13107200 cpu:       0.0
 (Enter /programs/64bit/g09/g09-gfortran/bin/l703.exe)
 Compute integral first derivatives, UseDBF=F ICtDFT=           0.
 Integral derivatives from FoFDir, PRISM(SPDF).
 Calling FoFJK, ICntrl=      2127 FMM=F ISym2X=0 I1Cent= 0 IOpClX= 0 NMat=1 NMatS=1 NMatT=0.
 FoFCou: FMM=F IPFlag=           0 FMFlag=      100000 FMFlg1=         800
         NFxFlg=           0 DoJE=F BraDBF=F KetDBF=F FulRan=T
         Omega=  0.000000  0.000000  1.000000  0.000000  0.000000 ICntrl=    2127 IOpCl=  0
         NMat0=    1 NMatS0=    1 NMatT0=    0 NMatD0=    1 NMtDS0=    0 NMtDT0=    0
         I1Cent=           0 NGrid=           0.
 Symmetry not used in FoFCou.
 Leave Link  703 at Fri Jun 21 17:31:53 2024, MaxMem=   13107200 cpu:       0.7
 (Enter /programs/64bit/g09/g09-gfortran/bin/l716.exe)
 Dipole        =-5.12957260D-05 2.17309928D-03 2.22673395D-04
 ***** Axes restored to original set *****
 -------------------------------------------------------------------
 Center     Atomic                   Forces (Hartrees/Bohr)
 Number     Number              X              Y              Z
 -------------------------------------------------------------------
      1        6          -0.002174122    0.002271346    0.002014696
      2        1           0.000240978   -0.000664942   -0.000214847
      3        1           0.001349439   -0.000382297   -0.000874651
      4        1           0.000158179   -0.000956178   -0.000390767
      5        1           0.000425527   -0.000267929   -0.000534431
 -------------------------------------------------------------------
 Cartesian Forces:  Max     0.002271346 RMS     0.001121125
 Leave Link  716 at Fri Jun 21 17:31:53 2024, MaxMem=   13107200 cpu:       0.0
 (Enter /programs/64bit/g09/g09-gfortran/bin/l103.exe)

 GradGradGradGradGradGradGradGradGradGradGradGradGradGradGradGradGradGrad
 Berny optimization.
 Using GEDIIS/GDIIS optimizer.
 Internal  Forces:  Max     0.001559199 RMS     0.000605309
 Search for a local minimum.
 Step number   2 out of a maximum of   24
 All quantities printed in internal units (Hartrees-Bohrs-Radians)
 RMS Force = .60531D-03 SwitMx=.10000D-02 MixMth= 2
 Mixed Optimization -- En-DIIS/RFO-DIIS
 Update second derivatives using D2CorX and points    1    2
 DE= -4.02D-03 DEPred=-4.18D-03 R= 9.60D-01
 SS=  1.41D+00  RLast= 1.41D-01 DXNew= 5.0454D-01 4.2225D-01
 Trust test= 9.60D-01 RLast= 1.41D-01 DXMaxT set to 4.22D-01
 The second derivative matrix:
                          R1        R2        R3        R4        A1
           R1           0.34829
           R2           0.00155   0.42265
           R3           0.00106  -0.00205   0.39826
           R4          -0.00010   0.00099   0.00053   0.33669
           A1          -0.00017  -0.00425  -0.00271   0.00037   0.15984
           A2           0.00025   0.00563   0.00360  -0.00049   0.00017
           A3          -0.00008  -0.00121  -0.00079   0.00010   0.00003
           A4          -0.00003  -0.00182  -0.00113   0.00017  -0.00017
           A5           0.00003   0.00131   0.00082  -0.00012   0.00010
           A6           0.00001   0.00033   0.00021  -0.00003   0.00003
           D1          -0.00042  -0.00806  -0.00519   0.00068  -0.00009
           D2          -0.00007  -0.00132  -0.00085   0.00011  -0.00002
           D3           0.00029   0.00561   0.00362  -0.00047   0.00006
           D4           0.00036   0.00693   0.00447  -0.00058   0.00008
                          A2        A3        A4        A5        A6
           A2           0.15982
           A3          -0.00006   0.16003
           A4           0.00021  -0.00002   0.15988
           A5          -0.00012   0.00001   0.00007   0.15995
           A6          -0.00004   0.00000   0.00002  -0.00001   0.16000
           D1           0.00004   0.00013  -0.00024   0.00012   0.00004
           D2           0.00001   0.00002  -0.00004   0.00002   0.00001
           D3          -0.00003  -0.00009   0.00017  -0.00009  -0.00003
           D4          -0.00004  -0.00011   0.00021  -0.00011  -0.00004
                          D1        D2        D3        D4
           D1           0.00790
           D2           0.00004   0.00231
           D3          -0.00017  -0.00003   0.00242
           D4          -0.00021  -0.00003   0.00014   0.00247
 Use linear search instead of GDIIS.
     Eigenvalues ---    0.05201   0.05768   0.08797   0.15974   0.16000
     Eigenvalues ---    0.33668   0.34823   0.39825   0.423071000.00000
     Eigenvalues --- 1000.000001000.000001000.000001000.00000
 RFO step:  Lambda=-2.31575798D-05 EMin= 5.20102608D-02
 Quartic linear search produced a step of  0.03385.
 Iteration  1 RMS(Cart)=  0.00276293 RMS(Int)=  0.00001637
 Iteration  2 RMS(Cart)=  0.00001350 RMS(Int)=  0.00000948
 Iteration  3 RMS(Cart)=  0.00000000 RMS(Int)=  0.00000948
 Variable       Old X    -DE/DX   Delta X   Delta X   Delta X     New X
                                 (Linear)    (Quad)   (Total)
    R1        2.06615  -0.00022   0.00021  -0.00080  -0.00059   2.06556
    R2        2.05987   0.00156   0.00384   0.00075   0.00459   2.06446
    R3        2.06208   0.00083   0.00264   0.00011   0.00275   2.06483
    R4        2.06632  -0.00025  -0.00042  -0.00044  -0.00086   2.06546
    A1        1.91035   0.00003   0.00027   0.00053   0.00078   1.91114
    A2        1.91218  -0.00038  -0.00026  -0.00148  -0.00176   1.91042
    A3        1.89899   0.00083  -0.00012   0.00856   0.00843   1.90742
    A4        1.92115  -0.00043   0.00037  -0.00758  -0.00722   1.91393
    A5        1.91275  -0.00033  -0.00020  -0.00158  -0.00179   1.91096
    A6        1.90825   0.00030  -0.00006   0.00175   0.00167   1.90993
    D1       -2.10152   0.00047  -0.00040   0.00503   0.00462  -2.09690
    D2        2.08825   0.00034   0.00014   0.00486   0.00499   2.09325
    D3       -2.08781  -0.00021   0.00043  -0.00435  -0.00393  -2.09174
    D4        2.10713  -0.00055   0.00029  -0.00921  -0.00893   2.09820
         Item               Value     Threshold  Converged?
 Maximum Force            0.001559     0.000450     NO 
 RMS     Force            0.000605     0.000300     NO 
 Maximum Displacement     0.004294     0.001800     NO 
 RMS     Displacement     0.002761     0.001200     NO 
 Predicted change in Energy=-1.511573D-05
 GradGradGradGradGradGradGradGradGradGradGradGradGradGradGradGradGradGrad

 Leave Link  103 at Fri Jun 21 17:31:53 2024, MaxMem=   13107200 cpu:       0.0
 (Enter /programs/64bit/g09/g09-gfortran/bin/l202.exe)
                          Input orientation:                          
 ---------------------------------------------------------------------
 Center     Atomic      Atomic             Coordinates (Angstroms)
 Number     Number       Type             X           Y           Z
 ---------------------------------------------------------------------
      1          6           0       -0.007138    0.008445    0.006812
      2          1           0       -0.011853    0.003653    1.099839
      3          1           0        1.024226    0.011932   -0.353402
      4          1           0       -0.522795   -0.880946   -0.363316
      5          1           0       -0.521929    0.903156   -0.352515
 ---------------------------------------------------------------------
                    Distance matrix (angstroms):
                    1          2          3          4          5
     1  C    0.000000
     2  H    1.093048   0.000000
     3  H    1.092465   1.784780   0.000000
     4  H    1.092663   1.784489   1.786226   0.000000
     5  H    1.092993   1.782867   1.784623   1.784135   0.000000
 Stoichiometry    CH4
 Framework group  C1[X(CH4)]
 Deg. of freedom     9
 Full point group                 C1      NOp   1
 Largest Abelian subgroup         C1      NOp   1
 Largest concise Abelian subgroup C1      NOp   1
                         Standard orientation:                         
 ---------------------------------------------------------------------
 Center     Atomic      Atomic             Coordinates (Angstroms)
 Number     Number       Type             X           Y           Z
 ---------------------------------------------------------------------
      1          6           0        0.000220    0.000599   -0.000107
      2          1           0       -0.076122   -0.728418   -0.810945
      3          1           0        0.976945    0.488421   -0.039070
      4          1           0       -0.788884    0.748694   -0.107729
      5          1           0       -0.113261   -0.512288    0.958383
 ---------------------------------------------------------------------
 Rotational constants (GHZ):    157.6210890    157.4603268    157.3185647
 Leave Link  202 at Fri Jun 21 17:31:53 2024, MaxMem=   13107200 cpu:       0.0
 (Enter /programs/64bit/g09/g09-gfortran/bin/l301.exe)
 Standard basis: 6-31+G(d,p) (6D, 7F)
 Ernie: Thresh=  0.10000D-02 Tol=  0.10000D-05 Strict=F.
 There are    39 symmetry adapted basis functions of A   symmetry.
 Integral buffers will be    131072 words long.
 Raffenetti 2 integral format.
 Two-electron integral symmetry is turned on.
    39 basis functions,    60 primitive gaussians,    39 cartesian basis functions
     5 alpha electrons        5 beta electrons
       nuclear repulsion energy        13.4010633712 Hartrees.
 IExCor=  402 DFT=T Ex+Corr=B3LYP ExCW=0 ScaHFX=  0.200000
 ScaDFX=  0.800000  0.720000  1.000000  0.810000 ScalE2=  1.000000  1.000000
 IRadAn=      0 IRanWt=     -1 IRanGd=            0 ICorTp=0
 NAtoms=    5 NActive=    5 NUniq=    5 SFac= 7.50D-01 NAtFMM=   80 NAOKFM=F Big=F
 Leave Link  301 at Fri Jun 21 17:31:53 2024, MaxMem=   13107200 cpu:       0.0
 (Enter /programs/64bit/g09/g09-gfortran/bin/l302.exe)
 NPDir=0 NMtPBC=     1 NCelOv=     1 NCel=       1 NClECP=     1 NCelD=      1
         NCelK=      1 NCelE2=     1 NClLst=     1 CellRange=     0.0.
 One-electron integrals computed using PRISM.
 NBasis=    39 RedAO= T  NBF=    39
 NBsUse=    39 1.00D-06 NBFU=    39
 Precomputing XC quadrature grid using
 IXCGrd= 2 IRadAn=           0 IRanWt=          -1 IRanGd=           0 AccXCQ= 1.00D-10.
 NRdTot=     319 NPtTot=       40572 NUsed=       42883 NTot=       42915
 NSgBfM=    39    39    39    39    39 NAtAll=     5     5.
 Leave Link  302 at Fri Jun 21 17:31:53 2024, MaxMem=   13107200 cpu:       0.1
 (Enter /programs/64bit/g09/g09-gfortran/bin/l303.exe)
 DipDrv:  MaxL=1.
 Leave Link  303 at Fri Jun 21 17:31:53 2024, MaxMem=   13107200 cpu:       0.0
 (Enter /programs/64bit/g09/g09-gfortran/bin/l401.exe)
 Initial guess read from the read-write file.
 B after Tr=     0.000000    0.000000    0.000000
         Rot=    1.000000    0.000000    0.000000    0.000000 Ang=   0.00 deg.
 Guess basis will be translated and rotated to current coordinates.
 Initial guess orbital symmetries:
       Occupied  (A) (A) (A) (A) (A)
       Virtual   (A) (A) (A) (A) (A) (A) (A) (A) (A) (A) (A) (A)
                 (A) (A) (A) (A) (A) (A) (A) (A) (A) (A) (A) (A)
                 (A) (A) (A) (A) (A) (A) (A) (A) (A) (A)
 The electronic state of the initial guess is 1-A.
 Leave Link  401 at Fri Jun 21 17:31:53 2024, MaxMem=   13107200 cpu:       0.0
 (Enter /programs/64bit/g09/g09-gfortran/bin/l502.exe)
 Closed shell SCF:
 Requested convergence on RMS density matrix=1.00D-08 within 128 cycles.
 Requested convergence on MAX density matrix=1.00D-06.
 Requested convergence on             energy=1.00D-06.
 No special actions if energy rises.
 Using DIIS extrapolation, IDIIS=  1040.
 Integral symmetry usage will be decided dynamically.
        42825 words used for storage of precomputed grid.
 Keep R1 ints in memory in canonical form, NReq=1229924.
 IEnd=       66068 IEndB=       66068 NGot=    13107200 MDV=    12754715
 LenX=    12754715 LenY=    12752753
 Symmetry not used in FoFDir.
 MinBra= 0 MaxBra= 2 Meth= 1.
 IRaf=       0 NMat=   1 IRICut=       1 DoRegI=T DoRafI=F ISym2E= 0 JSym2E=0.

 Cycle   1  Pass 1  IDiag  1:
 E= -37.6208966788506    
 DIIS: error= 1.27D-01 at cycle   1 NSaved=   1.
 NSaved= 1 IEnMin= 1 EnMin= -37.6208966788506     IErMin= 1 ErrMin= 1.27D-01
 ErrMax= 1.27D-01 EMaxC= 1.00D-01 BMatC= 5.21D-01 BMatP= 5.21D-01
 IDIUse=3 WtCom= 0.00D+00 WtEn= 1.00D+00
 Coeff-Com:  0.100D+01
 Coeff-En:   0.100D+01
 Coeff:      0.100D+01
 Gap=     0.375 Goal=   None    Shift=    0.000
 GapD=    0.375 DampG=1.000 DampE=0.250 DampFc=0.2500 IDamp=-1.
 Damping current iteration by 2.50D-01
 RMSDP=6.35D-02 MaxDP=7.15D-01              OVMax= 9.05D-01

 Cycle   2  Pass 1  IDiag  1:
 E= -38.3232632306869     Delta-E=       -0.702366551836 Rises=F Damp=T
 DIIS: error= 8.84D-02 at cycle   2 NSaved=   2.
 NSaved= 2 IEnMin= 2 EnMin= -38.3232632306869     IErMin= 2 ErrMin= 8.84D-02
 ErrMax= 8.84D-02 EMaxC= 1.00D-01 BMatC= 2.33D-01 BMatP= 5.21D-01
 IDIUse=3 WtCom= 1.16D-01 WtEn= 8.84D-01
 Coeff-Com: -0.129D+01 0.229D+01
 Coeff-En:   0.000D+00 0.100D+01
 Coeff:     -0.151D+00 0.115D+01
 Gap=     0.330 Goal=   None    Shift=    0.000
 RMSDP=4.81D-02 MaxDP=4.65D-01 DE=-7.02D-01 OVMax= 1.41D-01

 Cycle   3  Pass 1  IDiag  1:
 E= -40.4773917493953     Delta-E=       -2.154128518708 Rises=F Damp=F
 DIIS: error= 3.66D-02 at cycle   3 NSaved=   3.
 NSaved= 3 IEnMin= 3 EnMin= -40.4773917493953     IErMin= 3 ErrMin= 3.66D-02
 ErrMax= 3.66D-02 EMaxC= 1.00D-01 BMatC= 5.05D-02 BMatP= 2.33D-01
 IDIUse=3 WtCom= 6.34D-01 WtEn= 3.66D-01
 Coeff-Com: -0.526D-01 0.276D+00 0.776D+00
 Coeff-En:   0.000D+00 0.000D+00 0.100D+01
 Coeff:     -0.334D-01 0.175D+00 0.858D+00
 Gap=     0.451 Goal=   None    Shift=    0.000
 RMSDP=7.10D-03 MaxDP=1.02D-01 DE=-2.15D+00 OVMax= 1.31D-01

 Cycle   4  Pass 1  IDiag  1:
 E= -40.4903899584910     Delta-E=       -0.012998209096 Rises=F Damp=F
 DIIS: error= 2.90D-02 at cycle   4 NSaved=   4.
 NSaved= 4 IEnMin= 4 EnMin= -40.4903899584910     IErMin= 4 ErrMin= 2.90D-02
 ErrMax= 2.90D-02 EMaxC= 1.00D-01 BMatC= 3.54D-02 BMatP= 5.05D-02
 IDIUse=3 WtCom= 7.10D-01 WtEn= 2.90D-01
 Coeff-Com:  0.146D-01-0.325D-01 0.464D+00 0.554D+00
 Coeff-En:   0.000D+00 0.000D+00 0.425D+00 0.575D+00
 Coeff:      0.104D-01-0.230D-01 0.452D+00 0.560D+00
 Gap=     0.403 Goal=   None    Shift=    0.000
 RMSDP=3.70D-03 MaxDP=5.36D-02 DE=-1.30D-02 OVMax= 6.35D-02

 Cycle   5  Pass 1  IDiag  1:
 E= -40.5258440329327     Delta-E=       -0.035454074442 Rises=F Damp=F
 DIIS: error= 2.40D-03 at cycle   5 NSaved=   5.
 NSaved= 5 IEnMin= 5 EnMin= -40.5258440329327     IErMin= 5 ErrMin= 2.40D-03
 ErrMax= 2.40D-03 EMaxC= 1.00D-01 BMatC= 2.92D-04 BMatP= 3.54D-02
 IDIUse=3 WtCom= 9.76D-01 WtEn= 2.40D-02
 Coeff-Com:  0.112D-01-0.189D-01 0.701D-01 0.138D+00 0.799D+00
 Coeff-En:   0.000D+00 0.000D+00 0.000D+00 0.000D+00 0.100D+01
 Coeff:      0.109D-01-0.184D-01 0.685D-01 0.135D+00 0.804D+00
 Gap=     0.411 Goal=   None    Shift=    0.000
 RMSDP=3.40D-04 MaxDP=4.47D-03 DE=-3.55D-02 OVMax= 6.62D-03

 Cycle   6  Pass 1  IDiag  1:
 E= -40.5261310484256     Delta-E=       -0.000287015493 Rises=F Damp=F
 DIIS: error= 3.63D-04 at cycle   6 NSaved=   6.
 NSaved= 6 IEnMin= 6 EnMin= -40.5261310484256     IErMin= 6 ErrMin= 3.63D-04
 ErrMax= 3.63D-04 EMaxC= 1.00D-01 BMatC= 5.18D-06 BMatP= 2.92D-04
 IDIUse=3 WtCom= 9.96D-01 WtEn= 3.63D-03
 Coeff-Com: -0.344D-03 0.325D-03-0.367D-02 0.128D-01 0.157D+00 0.834D+00
 Coeff-En:   0.000D+00 0.000D+00 0.000D+00 0.000D+00 0.000D+00 0.100D+01
 Coeff:     -0.343D-03 0.323D-03-0.366D-02 0.127D-01 0.156D+00 0.835D+00
 Gap=     0.409 Goal=   None    Shift=    0.000
 RMSDP=6.22D-05 MaxDP=4.85D-04 DE=-2.87D-04 OVMax= 9.85D-04

 Cycle   7  Pass 1  IDiag  1:
 E= -40.5261369924780     Delta-E=       -0.000005944052 Rises=F Damp=F
 DIIS: error= 1.73D-05 at cycle   7 NSaved=   7.
 NSaved= 7 IEnMin= 7 EnMin= -40.5261369924780     IErMin= 7 ErrMin= 1.73D-05
 ErrMax= 1.73D-05 EMaxC= 1.00D-01 BMatC= 1.09D-08 BMatP= 5.18D-06
 IDIUse=1 WtCom= 1.00D+00 WtEn= 0.00D+00
 Coeff-Com:  0.712D-04-0.112D-03-0.173D-03-0.708D-03-0.578D-02 0.191D-01
 Coeff-Com:  0.988D+00
 Coeff:      0.712D-04-0.112D-03-0.173D-03-0.708D-03-0.578D-02 0.191D-01
 Coeff:      0.988D+00
 Gap=     0.409 Goal=   None    Shift=    0.000
 RMSDP=4.43D-06 MaxDP=3.82D-05 DE=-5.94D-06 OVMax= 7.39D-05

 Cycle   8  Pass 1  IDiag  1:
 E= -40.5261370087252     Delta-E=       -0.000000016247 Rises=F Damp=F
 DIIS: error= 1.72D-06 at cycle   8 NSaved=   8.
 NSaved= 8 IEnMin= 8 EnMin= -40.5261370087252     IErMin= 8 ErrMin= 1.72D-06
 ErrMax= 1.72D-06 EMaxC= 1.00D-01 BMatC= 1.35D-10 BMatP= 1.09D-08
 IDIUse=1 WtCom= 1.00D+00 WtEn= 0.00D+00
 Coeff-Com:  0.247D-05-0.434D-05 0.189D-04-0.856D-04-0.146D-02-0.470D-02
 Coeff-Com:  0.745D-01 0.932D+00
 Coeff:      0.247D-05-0.434D-05 0.189D-04-0.856D-04-0.146D-02-0.470D-02
 Coeff:      0.745D-01 0.932D+00
 Gap=     0.409 Goal=   None    Shift=    0.000
 RMSDP=3.66D-07 MaxDP=3.20D-06 DE=-1.62D-08 OVMax= 5.14D-06

 Cycle   9  Pass 1  IDiag  1:
 E= -40.5261370088963     Delta-E=       -0.000000000171 Rises=F Damp=F
 DIIS: error= 6.29D-08 at cycle   9 NSaved=   9.
 NSaved= 9 IEnMin= 9 EnMin= -40.5261370088963     IErMin= 9 ErrMin= 6.29D-08
 ErrMax= 6.29D-08 EMaxC= 1.00D-01 BMatC= 3.55D-13 BMatP= 1.35D-10
 IDIUse=1 WtCom= 1.00D+00 WtEn= 0.00D+00
 Coeff-Com: -0.248D-06 0.328D-06 0.245D-05 0.515D-05 0.379D-04-0.170D-03
 Coeff-Com: -0.837D-02 0.852D-02 0.100D+01
 Coeff:     -0.248D-06 0.328D-06 0.245D-05 0.515D-05 0.379D-04-0.170D-03
 Coeff:     -0.837D-02 0.852D-02 0.100D+01
 Gap=     0.409 Goal=   None    Shift=    0.000
 RMSDP=2.96D-08 MaxDP=3.16D-07 DE=-1.71D-10 OVMax= 4.30D-07

 Cycle  10  Pass 1  IDiag  1:
 E= -40.5261370088968     Delta-E=       -0.000000000001 Rises=F Damp=F
 DIIS: error= 1.69D-08 at cycle  10 NSaved=  10.
 NSaved=10 IEnMin=10 EnMin= -40.5261370088968     IErMin=10 ErrMin= 1.69D-08
 ErrMax= 1.69D-08 EMaxC= 1.00D-01 BMatC= 9.65D-15 BMatP= 3.55D-13
 IDIUse=1 WtCom= 1.00D+00 WtEn= 0.00D+00
 Coeff-Com: -0.449D-07 0.556D-07 0.402D-06 0.120D-05 0.137D-04-0.117D-04
 Coeff-Com: -0.182D-02-0.189D-02 0.178D+00 0.826D+00
 Coeff:     -0.449D-07 0.556D-07 0.402D-06 0.120D-05 0.137D-04-0.117D-04
 Coeff:     -0.182D-02-0.189D-02 0.178D+00 0.826D+00
 Gap=     0.409 Goal=   None    Shift=    0.000
 RMSDP=2.82D-09 MaxDP=2.43D-08 DE=-5.26D-13 OVMax= 5.18D-08

 SCF Done:  E(RB3LYP) =  -40.5261370089     A.U. after   10 cycles
             Convg  =    0.2818D-08             -V/T =  2.0115
 KE= 4.006446076282D+01 PE=-1.198020850693D+02 EE= 2.581042392640D+01
 Leave Link  502 at Fri Jun 21 17:31:56 2024, MaxMem=   13107200 cpu:       2.7
 (Enter /programs/64bit/g09/g09-gfortran/bin/l701.exe)
 Compute integral first derivatives.
 ... and contract with generalized density number  0.
 Leave Link  701 at Fri Jun 21 17:31:56 2024, MaxMem=   13107200 cpu:       0.1
 (Enter /programs/64bit/g09/g09-gfortran/bin/l702.exe)
 L702 exits ... SP integral derivatives will be done elsewhere.
 Leave Link  702 at Fri Jun 21 17:31:56 2024, MaxMem=   13107200 cpu:       0.0
 (Enter /programs/64bit/g09/g09-gfortran/bin/l703.exe)
 Compute integral first derivatives, UseDBF=F ICtDFT=           0.
 Integral derivatives from FoFDir, PRISM(SPDF).
 Calling FoFJK, ICntrl=      2127 FMM=F ISym2X=0 I1Cent= 0 IOpClX= 0 NMat=1 NMatS=1 NMatT=0.
 FoFCou: FMM=F IPFlag=           0 FMFlag=      100000 FMFlg1=         800
         NFxFlg=           0 DoJE=F BraDBF=F KetDBF=F FulRan=T
         Omega=  0.000000  0.000000  1.000000  0.000000  0.000000 ICntrl=    2127 IOpCl=  0
         NMat0=    1 NMatS0=    1 NMatT0=    0 NMatD0=    1 NMtDS0=    0 NMtDT0=    0
         I1Cent=           0 NGrid=           0.
 Symmetry not used in FoFCou.
 Leave Link  703 at Fri Jun 21 17:31:56 2024, MaxMem=   13107200 cpu:       0.3
 (Enter /programs/64bit/g09/g09-gfortran/bin/l716.exe)
 Dipole        =-2.38388183D-04-7.11065632D-04 1.59479562D-04
 ***** Axes restored to original set *****
 -------------------------------------------------------------------
 Center     Atomic                   Forces (Hartrees/Bohr)
 Number     Number              X              Y              Z
 -------------------------------------------------------------------
      1        6          -0.000509585    0.000483031    0.000466740
      2        1           0.000128647   -0.000148275   -0.000155791
      3        1           0.000069671   -0.000149824   -0.000103971
      4        1           0.000185753   -0.000074208   -0.000080802
      5        1           0.000125514   -0.000110725   -0.000126175
 -------------------------------------------------------------------
 Cartesian Forces:  Max     0.000509585 RMS     0.000245253
 Leave Link  716 at Fri Jun 21 17:31:57 2024, MaxMem=   13107200 cpu:       0.0
 (Enter /programs/64bit/g09/g09-gfortran/bin/l103.exe)

 GradGradGradGradGradGradGradGradGradGradGradGradGradGradGradGradGradGrad
 Berny optimization.
 Using GEDIIS/GDIIS optimizer.
 Internal  Forces:  Max     0.000210940 RMS     0.000117141
 Search for a local minimum.
 Step number   3 out of a maximum of   24
 All quantities printed in internal units (Hartrees-Bohrs-Radians)
 RMS Force = .11714D-03 SwitMx=.10000D-02 MixMth= 2
 Mixed Optimization -- En-DIIS/RFO-DIIS
 Swaping is turned off.
 Update second derivatives using D2CorX and points    1    2    3
 DE= -1.84D-05 DEPred=-1.51D-05 R= 1.22D+00
 SS=  1.41D+00  RLast= 1.74D-02 DXNew= 7.1013D-01 5.2318D-02
 Trust test= 1.22D+00 RLast= 1.74D-02 DXMaxT set to 4.22D-01
 The second derivative matrix:
                          R1        R2        R3        R4        A1
           R1           0.34727
           R2           0.00974   0.41165
           R3           0.00561  -0.00645   0.39682
           R4          -0.00147   0.00806   0.00434   0.33515
           A1           0.00029  -0.00654  -0.00393   0.00089   0.15967
           A2          -0.00055  -0.00034  -0.00009  -0.00070   0.00021
           A3           0.00648  -0.04117  -0.02262   0.00795  -0.00263
           A4          -0.00623   0.04922   0.02727  -0.00816   0.00269
           A5          -0.00102  -0.00062  -0.00056  -0.00081   0.00030
           A6           0.00111  -0.00084  -0.00022   0.00091  -0.00027
           D1          -0.00112   0.01251   0.00668  -0.00127   0.00063
           D2          -0.00057   0.01539   0.00881  -0.00142   0.00055
           D3           0.00065  -0.00274  -0.00118   0.00038  -0.00025
           D4           0.00123  -0.01813  -0.01000   0.00180  -0.00080
                          A2        A3        A4        A5        A6
           A2           0.16212
           A3           0.00221   0.12082
           A4          -0.00508   0.04013   0.12242
           A5           0.00149   0.00434  -0.00664   0.16090
           A6          -0.00098  -0.00532   0.00699  -0.00038   0.15992
           D1          -0.00410   0.00808  -0.00388  -0.00357   0.00301
           D2          -0.00341   0.00619  -0.00261  -0.00301   0.00242
           D3           0.00157  -0.00368   0.00215   0.00137  -0.00123
           D4           0.00498  -0.00987   0.00476   0.00438  -0.00365
                          D1        D2        D3        D4
           D1           0.01186
           D2           0.00343   0.00520
           D3          -0.00155  -0.00121   0.00288
           D4          -0.00498  -0.00412   0.00180   0.00822
     Eigenvalues ---    0.04975   0.05272   0.08087   0.15661   0.16001
     Eigenvalues ---    0.33377   0.34611   0.39742   0.416461000.00000
     Eigenvalues --- 1000.000001000.000001000.000001000.00000
 En-DIIS/RFO-DIIS IScMMF=        0 using points:     3    2
 RFO step:  Lambda=-6.80407265D-07.
 DIIS coeffs:      1.27715     -0.27715
 Iteration  1 RMS(Cart)=  0.00103384 RMS(Int)=  0.00000434
 Iteration  2 RMS(Cart)=  0.00000177 RMS(Int)=  0.00000399
 Iteration  3 RMS(Cart)=  0.00000000 RMS(Int)=  0.00000399
 Variable       Old X    -DE/DX   Delta X   Delta X   Delta X     New X
                                  (DIIS)     (GDIIS)  (Total)
    R1        2.06556  -0.00016  -0.00016  -0.00040  -0.00056   2.06500
    R2        2.06446   0.00010   0.00127  -0.00063   0.00064   2.06510
    R3        2.06483   0.00000   0.00076  -0.00052   0.00024   2.06507
    R4        2.06546  -0.00011  -0.00024  -0.00022  -0.00046   2.06500
    A1        1.91114  -0.00002   0.00022  -0.00053  -0.00032   1.91081
    A2        1.91042  -0.00006  -0.00049   0.00056   0.00006   1.91047
    A3        1.90742   0.00021   0.00234   0.00069   0.00302   1.91044
    A4        1.91393  -0.00015  -0.00200  -0.00103  -0.00303   1.91090
    A5        1.91096  -0.00004  -0.00050   0.00015  -0.00035   1.91061
    A6        1.90993   0.00007   0.00046   0.00018   0.00064   1.91056
    D1       -2.09690   0.00016   0.00128   0.00095   0.00222  -2.09468
    D2        2.09325   0.00007   0.00138  -0.00014   0.00124   2.09448
    D3       -2.09174  -0.00010  -0.00109  -0.00121  -0.00230  -2.09404
    D4        2.09820  -0.00017  -0.00247  -0.00106  -0.00354   2.09466
         Item               Value     Threshold  Converged?
 Maximum Force            0.000211     0.000450     YES
 RMS     Force            0.000117     0.000300     YES
 Maximum Displacement     0.001617     0.001800     YES
 RMS     Displacement     0.001034     0.001200     YES
 Predicted change in Energy=-1.311503D-06
 Optimization completed.
    -- Stationary point found.
                           ----------------------------
                           !   Optimized Parameters   !
                           ! (Angstroms and Degrees)  !
 --------------------------                            --------------------------
 ! Name  Definition              Value          Derivative Info.                !
 --------------------------------------------------------------------------------
 ! R1    R(1,2)                  1.093          -DE/DX =   -0.0002              !
 ! R2    R(1,3)                  1.0925         -DE/DX =    0.0001              !
 ! R3    R(1,4)                  1.0927         -DE/DX =    0.0                 !
 ! R4    R(1,5)                  1.093          -DE/DX =   -0.0001              !
 ! A1    A(2,1,3)              109.5            -DE/DX =    0.0                 !
 ! A2    A(2,1,4)              109.4588         -DE/DX =   -0.0001              !
 ! A3    A(2,1,5)              109.2873         -DE/DX =    0.0002              !
 ! A4    A(3,1,4)              109.6601         -DE/DX =   -0.0002              !
 ! A5    A(3,1,5)              109.4898         -DE/DX =    0.0                 !
 ! A6    A(4,1,5)              109.4307         -DE/DX =    0.0001              !
 ! D1    D(2,1,4,3)           -120.1436         -DE/DX =    0.0002              !
 ! D2    D(2,1,5,3)            119.9341         -DE/DX =    0.0001              !
 ! D3    D(2,1,5,4)           -119.848          -DE/DX =   -0.0001              !
 ! D4    D(3,1,5,4)            120.2179         -DE/DX =   -0.0002              !
 --------------------------------------------------------------------------------
 GradGradGradGradGradGradGradGradGradGradGradGradGradGradGradGradGradGrad

 Largest change from initial coordinates is atom    5       1.346 Angstoms.
 Leave Link  103 at Fri Jun 21 17:31:57 2024, MaxMem=   13107200 cpu:       0.0
 (Enter /programs/64bit/g09/g09-gfortran/bin/l202.exe)
                          Input orientation:                          
 ---------------------------------------------------------------------
 Center     Atomic      Atomic             Coordinates (Angstroms)
 Number     Number       Type             X           Y           Z
 ---------------------------------------------------------------------
      1          6           0       -0.007138    0.008445    0.006812
      2          1           0       -0.011853    0.003653    1.099839
      3          1           0        1.024226    0.011932   -0.353402
      4          1           0       -0.522795   -0.880946   -0.363316
      5          1           0       -0.521929    0.903156   -0.352515
 ---------------------------------------------------------------------
                    Distance matrix (angstroms):
                    1          2          3          4          5
     1  C    0.000000
     2  H    1.093048   0.000000
     3  H    1.092465   1.784780   0.000000
     4  H    1.092663   1.784489   1.786226   0.000000
     5  H    1.092993   1.782867   1.784623   1.784135   0.000000
 Stoichiometry    CH4
 Framework group  C1[X(CH4)]
 Deg. of freedom     9
 Full point group                 C1      NOp   1
 Largest Abelian subgroup         C1      NOp   1
 Largest concise Abelian subgroup C1      NOp   1
                         Standard orientation:                         
 ---------------------------------------------------------------------
 Center     Atomic      Atomic             Coordinates (Angstroms)
 Number     Number       Type             X           Y           Z
 ---------------------------------------------------------------------
      1          6           0        0.000220    0.000599   -0.000107
      2          1           0       -0.076122   -0.728418   -0.810945
      3          1           0        0.976945    0.488421   -0.039070
      4          1           0       -0.788884    0.748694   -0.107729
      5          1           0       -0.113261   -0.512288    0.958383
 ---------------------------------------------------------------------
 Rotational constants (GHZ):    157.6210890    157.4603268    157.3185647
 Leave Link  202 at Fri Jun 21 17:31:57 2024, MaxMem=   13107200 cpu:       0.0
 (Enter /programs/64bit/g09/g09-gfortran/bin/l601.exe)
 Copying SCF densities to generalized density rwf, IOpCl= 0 IROHF=0.

 **********************************************************************

            Population analysis using the SCF density.

 **********************************************************************

 Orbital symmetries:
       Occupied  (A) (A) (A) (A) (A)
       Virtual   (A) (A) (A) (A) (A) (A) (A) (A) (A) (A) (A) (A)
                 (A) (A) (A) (A) (A) (A) (A) (A) (A) (A) (A) (A)
                 (A) (A) (A) (A) (A) (A) (A) (A) (A) (A)
 The electronic state is 1-A.
 Alpha  occ. eigenvalues --  -10.17259  -0.69592  -0.39417  -0.39378  -0.39346
 Alpha virt. eigenvalues --    0.01597   0.06108   0.06112   0.06116   0.18091
 Alpha virt. eigenvalues --    0.18115   0.18144   0.27737   0.63800   0.63811
 Alpha virt. eigenvalues --    0.63821   0.90949   0.90997   0.91056   1.05084
 Alpha virt. eigenvalues --    1.11322   1.35761   1.35765   2.04207   2.04249
 Alpha virt. eigenvalues --    2.04287   2.08350   2.08409   2.08476   2.62130
 Alpha virt. eigenvalues --    2.62333   2.62552   2.90372   2.90381   3.16408
 Alpha virt. eigenvalues --    3.41294   3.41306   3.41319   4.41824
          Condensed to atoms (all electrons):
              1          2          3          4          5
     1  C    5.046948   0.390748   0.390953   0.390896   0.390736
     2  H    0.390748   0.531201  -0.024747  -0.024774  -0.024916
     3  H    0.390953  -0.024747   0.530481  -0.024615  -0.024755
     4  H    0.390896  -0.024774  -0.024615   0.530672  -0.024803
     5  H    0.390736  -0.024916  -0.024755  -0.024803   0.531253
 Mulliken atomic charges:
              1
     1  C   -0.610281
     2  H    0.152488
     3  H    0.152683
     4  H    0.152624
     5  H    0.152485
 Sum of Mulliken atomic charges =  -0.00000
 Mulliken charges with hydrogens summed into heavy atoms:
              1
     1  C   -0.000000
 Sum of Mulliken charges with hydrogens summed into heavy atoms =  -0.00000
 Electronic spatial extent (au):  <R**2>=             36.0451
 Charge=             -0.0000 electrons
 Dipole moment (field-independent basis, Debye):
    X=             -0.0006    Y=             -0.0018    Z=              0.0004  Tot=              0.0019
 Quadrupole moment (field-independent basis, Debye-Ang):
   XX=             -8.5057   YY=             -8.5130   ZZ=             -8.5194
   XY=              0.0002   XZ=              0.0001   YZ=             -0.0002
 Traceless Quadrupole moment (field-independent basis, Debye-Ang):
   XX=              0.0070   YY=             -0.0003   ZZ=             -0.0067
   XY=              0.0002   XZ=              0.0001   YZ=             -0.0002
 Octapole moment (field-independent basis, Debye-Ang**2):
  XXX=              0.3048  YYY=              0.0081  ZZZ=              0.2387  XYY=             -0.1935
  XXY=              0.6381  XXZ=             -0.0667  XZZ=             -0.1119  YZZ=             -0.6485
  YYZ=             -0.1711  XYZ=              0.0385
 Hexadecapole moment (field-independent basis, Debye-Ang**3):
 XXXX=            -16.8554 YYYY=            -17.4948 ZZZZ=            -16.8860 XXXY=              0.0982
 XXXZ=              0.0171 YYYX=             -0.1896 YYYZ=              0.1481 ZZZX=             -0.0640
 ZZZY=             -0.0706 XXYY=             -5.4539 XXZZ=             -6.0697 YYZZ=             -5.4390
 XXYZ=             -0.0787 YYXZ=              0.0472 ZZXY=              0.0924
 N-N= 1.340106337123D+01 E-N=-1.198020848906D+02  KE= 4.006446076282D+01
 No NMR shielding tensors so no spin-rotation constants.
 Leave Link  601 at Fri Jun 21 17:31:57 2024, MaxMem=   13107200 cpu:       0.0
 (Enter /programs/64bit/g09/g09-gfortran/bin/l9999.exe)
 B after Tr=    -0.007462    0.008738    0.007071
         Rot=    0.346404    0.917420    0.169045   -0.098838 Ang= 139.46 deg.
 Final structure in terms of initial Z-matrix:
 C
 H,1,d1
 H,1,d2,2,a1
 H,1,d3,2,a2,3,t1,0
 H,1,d4,2,a3,3,t2,0
      Variables:
 d1=1.09304764
 a1=109.49996982
 t1=120.24149226
 d2=1.09246462
 a2=109.45881774
 t2=-119.92784587
 d3=1.09266346
 d4=1.09299317
 a3=109.28733526
 1\1\GINC-MOLMOD\FOpt\RB3LYP\6-31+G(d,p)\C1H4\OSPITE\21-Jun-2024\0\\#p 
 B3LYP/6-31+g(d,p) opt\\metano\\0,1\C,-0.0071380384,0.008444916,0.00681
 22998\H,-0.0118533712,0.0036534926,1.0998392634\H,1.0242264496,0.01193
 15111,-0.3534016336\H,-0.5227953119,-0.8809459024,-0.3633160373\H,-0.5
 219294377,0.9031558341,-0.3525152117\\Version=EM64L-G09RevA.02\State=1
 -A\HF=-40.526137\RMSD=2.818e-09\RMSF=2.453e-04\Dipole=-0.0004396,0.000
 5056,0.0003729\Quadrupole=0.0040482,-0.0010877,-0.0029605,0.0026382,-0
 .0014803,0.0019109\PG=C01 [X(C1H4)]\\@


 NO HUMAN INVESTIGATION CAN BECOME REAL SCIENCE
 WITHOUT GOING THROUGH MATHEMATICAL PEOPLE.
 -- LEONARDO DA VINCI, IN "PENSIERI" CA. 1492
 Job cpu time:  0 days  0 hours  0 minutes 13.5 seconds.
 File lengths (MBytes):  RWF=      5 Int=      0 D2E=      0 Chk=      1 Scr=      1
 Normal termination of Gaussian 09 at Fri Jun 21 17:31:57 2024.
