 ethane                                                  
GAUSSIAN              9 MOL ORBITALS     98 PRIMITIVES        8 NUCLEI
  C    1    (CENTRE  1)  -1.44569161 -0.00017263 -0.00009224  CHARGE =  6.0
  C    2    (CENTRE  2)   1.44556518  0.00002403 -0.00005396  CHARGE =  6.0
  H    3    (CENTRE  3)  -2.20033351  1.11739853 -1.56978200  CHARGE =  1.0
  H    4    (CENTRE  4)  -2.19903302  0.80185419  1.75250712  CHARGE =  1.0
  H    5    (CENTRE  5)  -2.20019559 -1.91837482 -0.18191730  CHARGE =  1.0
  H    6    (CENTRE  6)   2.19995282 -1.11747704  1.56982870  CHARGE =  1.0
  H    7    (CENTRE  7)   2.20049320 -0.80084631 -1.75251376  CHARGE =  1.0
  H    8    (CENTRE  8)   2.19987468  1.91833709  0.18275444  CHARGE =  1.0
CENTRE ASSIGNMENTS    1  1  1  1  1  1  1  1  1  1  1  1  1  1  1  1  1  1  1  1
CENTRE ASSIGNMENTS    1  1  1  1  1  1  1  1  2  2  2  2  2  2  2  2  2  2  2  2
CENTRE ASSIGNMENTS    2  2  2  2  2  2  2  2  2  2  2  2  2  2  2  2  3  3  3  3
CENTRE ASSIGNMENTS    3  3  3  4  4  4  4  4  4  4  5  5  5  5  5  5  5  6  6  6
CENTRE ASSIGNMENTS    6  6  6  6  7  7  7  7  7  7  7  8  8  8  8  8  8  8
TYPE ASSIGNMENTS      1  1  1  1  1  1  1  1  1  2  2  2  3  3  3  4  4  4  1  2
TYPE ASSIGNMENTS      3  4  5  6  7  8  9 10  1  1  1  1  1  1  1  1  1  2  2  2
TYPE ASSIGNMENTS      3  3  3  4  4  4  1  2  3  4  5  6  7  8  9 10  1  1  1  1
TYPE ASSIGNMENTS      2  3  4  1  1  1  1  2  3  4  1  1  1  1  2  3  4  1  1  1
TYPE ASSIGNMENTS      1  2  3  4  1  1  1  1  2  3  4  1  1  1  1  2  3  4
EXPONENTS  0.3047525D+04 0.4573695D+03 0.1039487D+03 0.2921016D+02 0.9286663D+01
EXPONENTS  0.3163927D+01 0.7868272D+01 0.1881289D+01 0.5442493D+00 0.7868272D+01
EXPONENTS  0.1881289D+01 0.5442493D+00 0.7868272D+01 0.1881289D+01 0.5442493D+00
EXPONENTS  0.7868272D+01 0.1881289D+01 0.5442493D+00 0.1687145D+00 0.1687145D+00
EXPONENTS  0.1687145D+00 0.1687145D+00 0.8000000D+00 0.8000000D+00 0.8000000D+00
EXPONENTS  0.8000000D+00 0.8000000D+00 0.8000000D+00 0.3047525D+04 0.4573695D+03
EXPONENTS  0.1039487D+03 0.2921016D+02 0.9286663D+01 0.3163927D+01 0.7868272D+01
EXPONENTS  0.1881289D+01 0.5442493D+00 0.7868272D+01 0.1881289D+01 0.5442493D+00
EXPONENTS  0.7868272D+01 0.1881289D+01 0.5442493D+00 0.7868272D+01 0.1881289D+01
EXPONENTS  0.5442493D+00 0.1687145D+00 0.1687145D+00 0.1687145D+00 0.1687145D+00
EXPONENTS  0.8000000D+00 0.8000000D+00 0.8000000D+00 0.8000000D+00 0.8000000D+00
EXPONENTS  0.8000000D+00 0.1873114D+02 0.2825394D+01 0.6401217D+00 0.1612778D+00
EXPONENTS  0.1100000D+01 0.1100000D+01 0.1100000D+01 0.1873114D+02 0.2825394D+01
EXPONENTS  0.6401217D+00 0.1612778D+00 0.1100000D+01 0.1100000D+01 0.1100000D+01
EXPONENTS  0.1873114D+02 0.2825394D+01 0.6401217D+00 0.1612778D+00 0.1100000D+01
EXPONENTS  0.1100000D+01 0.1100000D+01 0.1873114D+02 0.2825394D+01 0.6401217D+00
EXPONENTS  0.1612778D+00 0.1100000D+01 0.1100000D+01 0.1100000D+01 0.1873114D+02
EXPONENTS  0.2825394D+01 0.6401217D+00 0.1612778D+00 0.1100000D+01 0.1100000D+01
EXPONENTS  0.1100000D+01 0.1873114D+02 0.2825394D+01 0.6401217D+00 0.1612778D+00
EXPONENTS  0.1100000D+01 0.1100000D+01 0.1100000D+01
MO    1     MO 0.0        OCC NO =    2.0000000  ORB. ENERGY =  -10.172597
  0.37779591D+00  0.69695969D+00  0.11251090D+01  0.14645577D+01  0.12497097D+01
  0.43149473D+00 -0.14011366D-01 -0.64578256D-02  0.18108417D-01 -0.21119683D-03
 -0.16193234D-03 -0.80815585D-04  0.31910811D-06  0.24467186D-06  0.12210841D-06
  0.27150618D-06  0.20817372D-06  0.10389328D-06 -0.16499210D-02  0.12954654D-03
 -0.23793516D-06 -0.19855085D-06 -0.75485317D-02 -0.71474470D-02 -0.71479642D-02
  0.59535852D-07  0.24152905D-06 -0.10730600D-06  0.37526394D+00  0.69228870D+00
  0.11175686D+01  0.14547423D+01  0.12413342D+01  0.42860287D+00 -0.13916462D-01
 -0.64140845D-02  0.17985763D-01  0.21182568D-03  0.16241449D-03  0.81056215D-04
  0.13560541D-07  0.10397363D-07  0.51890128D-08  0.16969453D-06  0.13011101D-06
  0.64934511D-07 -0.16307612D-02 -0.13206563D-03  0.64876459D-07 -0.71498143D-07
 -0.75025472D-02 -0.71015295D-02 -0.71016036D-02 -0.14926442D-06 -0.15574220D-06
  0.62821177D-07 -0.42720677D-04 -0.72462354D-04 -0.82495829D-04  0.34724594D-03
 -0.48977470D-05  0.10465091D-03 -0.14686397D-03 -0.42652734D-04 -0.72347110D-04
 -0.82364628D-04  0.34742084D-03 -0.44630166D-05  0.74969282D-04  0.16392029D-03
 -0.42780932D-04 -0.72564558D-04 -0.82612185D-04  0.34718066D-03 -0.50145387D-05
 -0.17948694D-03 -0.16920920D-04 -0.42724762D-04 -0.72469283D-04 -0.82503717D-04
  0.34512131D-03  0.44718092D-05 -0.10344249D-03  0.14538686D-03 -0.42757487D-04
 -0.72524790D-04 -0.82566910D-04  0.34503593D-03  0.46575181D-05 -0.74218403D-04
 -0.16229857D-03 -0.42748776D-04 -0.72510015D-04 -0.82550089D-04  0.34503028D-03
  0.45269168D-05  0.17764038D-03  0.16992468D-04
MO    2     MO 0.0        OCC NO =    2.0000000  ORB. ENERGY =  -10.172385
 -0.37535690D+00 -0.69246019D+00 -0.11178455D+01 -0.14551026D+01 -0.12416417D+01
 -0.42870905D+00  0.14043126D-01  0.64724639D-02 -0.18149465D-01 -0.63600240D-04
 -0.48764630D-04 -0.24336968D-04 -0.35202147D-06 -0.26990773D-06 -0.13470288D-06
 -0.29927760D-06 -0.22946708D-06 -0.11452016D-06  0.27821499D-02  0.33969090D-03
  0.22724983D-06  0.11746136D-06  0.67788747D-02  0.68450905D-02  0.68454038D-02
 -0.23650323D-06 -0.34180875D-06 -0.84094336D-07  0.37788825D+00  0.69713003D+00
  0.11253840D+01  0.14649156D+01  0.12500151D+01  0.43160019D+00 -0.14136894D-01
 -0.65156815D-02  0.18270651D-01 -0.61749895D-04 -0.47345903D-04 -0.23628924D-04
 -0.89298932D-08 -0.68468757D-08 -0.34170708D-08  0.50817163D-07  0.38963378D-07
  0.19445456D-07 -0.27931897D-02  0.33868028D-03  0.66702444D-08  0.25403104D-07
 -0.68293089D-02 -0.68932008D-02 -0.68933214D-02  0.47827121D-07 -0.14573425D-06
 -0.49270796D-07 -0.32653597D-05 -0.55386680D-05 -0.63055778D-05 -0.32405883D-03
  0.59438899D-04 -0.16051836D-03  0.22533489D-03 -0.32976211D-05 -0.55933895D-05
 -0.63678762D-05 -0.32411946D-03  0.59802848D-04 -0.11510500D-03 -0.25151830D-03
 -0.31962835D-05 -0.54215018D-05 -0.61721882D-05 -0.32399533D-03  0.59528669D-04
  0.27544420D-03  0.26024137D-04  0.29755318D-05  0.50470650D-05  0.57459052D-05
  0.32637015D-03  0.59635095D-04 -0.16109058D-03  0.22636529D-03  0.29898302D-05
  0.50713179D-05  0.57735162D-05  0.32639769D-03  0.59418041D-04 -0.11544368D-03
 -0.25270741D-03  0.29653151D-05  0.50297357D-05  0.57261764D-05  0.32641885D-03
  0.59605005D-04  0.27657674D-03  0.26371883D-04
MO    3     MO 0.0        OCC NO =    2.0000000  ORB. ENERGY =   -0.747694
 -0.80017473D-01 -0.14761661D+00 -0.23829898D+00 -0.31019447D+00 -0.26468950D+00
 -0.91390925D-01 -0.11434300D+00 -0.52700583D-01  0.14777793D+00  0.76184081D-01
  0.58413121D-01  0.29152241D-01  0.37890467D-04  0.29052007D-04  0.14498987D-04
  0.40619695D-04  0.31144606D-04  0.15543341D-04  0.43723920D-01  0.15356003D-02
  0.22933158D-05  0.23685380D-05  0.29253960D-02 -0.10436512D-01 -0.10440795D-01
  0.27107244D-05  0.57834298D-05  0.26279762D-05 -0.80012113D-01 -0.14760672D+00
 -0.23828302D+00 -0.31017369D+00 -0.26467177D+00 -0.91384803D-01 -0.11433533D+00
 -0.52697050D-01  0.14776803D+00 -0.76176830D-01 -0.58407562D-01 -0.29149467D-01
 -0.27538207D-08 -0.21114550D-08 -0.10537640D-08  0.19351445D-04  0.14837460D-04
  0.74049326D-05  0.43720185D-01 -0.15347082D-02 -0.46964166D-07  0.12651560D-05
  0.29295338D-02 -0.10438097D-01 -0.10440933D-01  0.13762766D-06 -0.40706860D-05
 -0.10357534D-05  0.18856928D-01  0.31984919D-01  0.36413700D-01  0.41178758D-02
  0.62734107D-02 -0.76670973D-02  0.10771718D-01  0.18862474D-01  0.31994326D-01
  0.36424410D-01  0.41179118D-02  0.62671423D-02 -0.55027889D-02 -0.12028370D-01
  0.18858217D-01  0.31987106D-01  0.36416189D-01  0.41183602D-02  0.62739706D-02
  0.13162624D-01  0.12478980D-02  0.18857234D-01  0.31985437D-01  0.36414290D-01
  0.41174358D-02 -0.62717340D-02  0.76671916D-02 -0.10771971D-01  0.18854197D-01
  0.31980287D-01  0.36408426D-01  0.41172141D-02 -0.62739643D-02  0.54943515D-02
  0.12023534D-01  0.18857401D-01  0.31985721D-01  0.36414613D-01  0.41178551D-02
 -0.62715021D-02 -0.13162267D-01 -0.12545105D-02
MO    4     MO 0.0        OCC NO =    2.0000000  ORB. ENERGY =   -0.611936
  0.69733228D-01  0.12864419D+00  0.20767161D+00  0.27032673D+00  0.23067029D+00
  0.79644908D-01  0.10368945D+00  0.47790374D-01 -0.13400920D+00  0.16522853D+00
  0.12668675D+00  0.63225569D-01 -0.36756258D-04 -0.28182367D-04 -0.14064976D-04
 -0.26664929D-04 -0.20444976D-04 -0.10203476D-04 -0.47338389D-01  0.56653366D-02
 -0.21112903D-05 -0.12817361D-05  0.19207155D-01  0.21158329D-02  0.21256023D-02
  0.21719735D-05 -0.67899523D-05  0.42837872D-06 -0.69736886D-01 -0.12865094D+00
 -0.20768250D+00 -0.27034091D+00 -0.23068239D+00 -0.79649086D-01 -0.10369441D+00
 -0.47792657D-01  0.13401560D+00  0.16529640D+00  0.12673880D+00  0.63251542D-01
 -0.84165112D-05 -0.64532469D-05 -0.32206225D-05 -0.47080415D-05 -0.36098276D-05
 -0.18015570D-05  0.47342236D-01  0.56677068D-02  0.30076134D-07 -0.14399531D-06
 -0.19204476D-01 -0.21210492D-02 -0.21232510D-02 -0.24355258D-05 -0.19899761D-05
 -0.18302425D-06 -0.25744695D-01 -0.43667876D-01 -0.49714333D-01 -0.93683890D-02
 -0.29622028D-02  0.88105018D-02 -0.12379612D-01 -0.25739163D-01 -0.43658492D-01
 -0.49703650D-01 -0.93656780D-02 -0.29520547D-02  0.63210222D-02  0.13818272D-01
 -0.25745113D-01 -0.43668585D-01 -0.49715141D-01 -0.93684271D-02 -0.29622017D-02
 -0.15126449D-01 -0.14342762D-02  0.25745493D-01  0.43669229D-01  0.49715874D-01
  0.93686182D-02 -0.29597691D-02  0.88116645D-02 -0.12380478D-01  0.25748722D-01
  0.43674706D-01  0.49722109D-01  0.93698536D-02 -0.29639932D-02  0.63157706D-02
  0.13821836D-01  0.25745257D-01  0.43668829D-01  0.49715419D-01  0.93681345D-02
 -0.29591022D-02 -0.15127470D-01 -0.14418768D-02
MO    5     MO 0.0        OCC NO =    2.0000000  ORB. ENERGY =   -0.429475
  0.12686743D-04  0.23404564D-04  0.37782223D-04  0.49181228D-04  0.41966431D-04
  0.14490000D-04  0.20132486D-04  0.92790443D-05 -0.26019409D-04  0.78795408D-04
  0.60415321D-04  0.30151479D-04  0.41040170D+00  0.31467000D+00  0.15704238D+00
  0.17462914D-01  0.13389455D-01  0.66822765D-02 -0.98276532D-05  0.43373915D-05
  0.21075141D-01  0.89464690D-03 -0.16319393D-05 -0.10253617D-01  0.10263385D-01
 -0.18292269D-02 -0.72370945D-04 -0.50420122D-02 -0.80212331D-06 -0.14797609D-05
 -0.23887929D-05 -0.31094986D-05 -0.26533408D-05 -0.91613480D-06 -0.16075463D-05
 -0.74091663D-06  0.20776076D-05 -0.71848192D-04 -0.55088636D-04 -0.27493090D-04
  0.41012762D+00  0.31445984D+00  0.15693750D+00  0.17411351D-01  0.13349920D-01
  0.66625456D-02 -0.11723824D-05 -0.29294186D-05  0.21062392D-01  0.89579430D-03
 -0.13366768D-05  0.10250088D-01 -0.10251248D-01  0.18051595D-02  0.75997354D-04
  0.50794161D-02  0.20874777D-01  0.35407573D-01  0.40310271D-01  0.14261434D-01
  0.42430564D-02  0.46177858D-02  0.72196465D-02  0.17414488D-01  0.29538269D-01
  0.33628275D-01  0.11900149D-01  0.35372338D-02  0.65670086D-02 -0.59444826D-02
 -0.38290975D-01 -0.64948741D-01 -0.73941846D-01 -0.26161237D-01 -0.77791935D-02
 -0.58083195D-02 -0.10448982D-02 -0.20874354D-01 -0.35406855D-01 -0.40309453D-01
 -0.14264892D-01  0.42404572D-02  0.46133370D-02  0.72177397D-02 -0.17385628D-01
 -0.29489316D-01 -0.33572544D-01 -0.11878618D-01  0.35325853D-02  0.65683162D-02
 -0.59364020D-02  0.38254858D-01  0.64887479D-01  0.73872101D-01  0.26140215D-01
 -0.77759617D-02 -0.57986442D-02 -0.10528688D-02
MO    6     MO 0.0        OCC NO =    2.0000000  ORB. ENERGY =   -0.429419
  0.82885652D-05  0.15290784D-04  0.24684067D-04  0.32131321D-04  0.27417715D-04
  0.94666780D-05  0.12919056D-04  0.59543812D-05 -0.16696706D-04  0.24789211D-03
  0.19006794D-03  0.94857225D-04 -0.17421396D-01 -0.13357621D-01 -0.66663892D-02
  0.41026693D+00  0.31456666D+00  0.15699081D+00 -0.74151227D-05  0.12381884D-04
 -0.89622375D-03  0.21070838D-01 -0.27479142D-05 -0.25319324D-02  0.25373844D-02
  0.82504138D-04 -0.17995371D-02  0.20534506D-01  0.42317151D-05  0.78066880D-05
  0.12602415D-04  0.16404600D-04  0.13998075D-04  0.48331988D-05  0.61968150D-05
  0.28561064D-05 -0.80088203D-05 -0.20800076D-03 -0.15948179D-03 -0.79592589D-04
 -0.17450544D-01 -0.13379970D-01 -0.66775429D-02  0.41027399D+00  0.31457207D+00
  0.15699351D+00 -0.53844300D-05 -0.93449243D-05 -0.89533416D-03  0.21074471D-01
  0.21760507D-05  0.25337277D-02 -0.25353031D-02 -0.77366801D-04  0.18169500D-02
 -0.20512160D-01 -0.32148432D-01 -0.54529826D-01 -0.62080279D-01 -0.21970780D-01
 -0.65281527D-02  0.70697060D-02 -0.10264892D-02  0.34139816D-01  0.57907590D-01
  0.65925744D-01  0.23333421D-01  0.69383879D-02 -0.60946177D-02 -0.29721672D-02
 -0.20075036D-02 -0.34051060D-02 -0.38765929D-02 -0.13727725D-02 -0.40237965D-03
 -0.12030676D-02  0.93922944D-02  0.32131480D-01  0.54501072D-01  0.62047545D-01
  0.21958506D-01 -0.65335892D-02  0.70641225D-02 -0.10215630D-02 -0.34154848D-01
 -0.57933087D-01 -0.65954772D-01 -0.23339987D-01  0.69371280D-02 -0.60920161D-02
 -0.29813109D-02  0.20022676D-02  0.33962248D-02  0.38664819D-02  0.13677571D-02
 -0.41184897D-03 -0.12010329D-02  0.93926920D-02
MO    7     MO 0.0        OCC NO =    2.0000000  ORB. ENERGY =   -0.363135
 -0.97253961D-02 -0.17941457D-01 -0.28963074D-01 -0.37701317D-01 -0.32170602D-01
 -0.11107736D-01 -0.16887422D-01 -0.77833976D-02  0.21825459D-01  0.53318422D+00
  0.40881184D+00  0.20402576D+00  0.47157486D-04  0.36157369D-04  0.18045061D-04
  0.49368704D-04  0.37852791D-04  0.18891196D-04  0.10880105D-01  0.28615843D-01
  0.68237338D-06 -0.17728306D-06  0.15049396D-01 -0.11351907D-01 -0.11332554D-01
 -0.37953850D-05 -0.31976602D-04  0.13044290D-04 -0.97427803D-02 -0.17973527D-01
 -0.29014846D-01 -0.37768708D-01 -0.32228107D-01 -0.11127591D-01 -0.16912848D-01
 -0.77951162D-02  0.21858319D-01 -0.53316548D+00 -0.40879747D+00 -0.20401859D+00
 -0.17668454D-03 -0.13547050D-03 -0.67609274D-04 -0.47960912D-03 -0.36773385D-03
 -0.18352496D-03  0.10899628D-01 -0.28615375D-01 -0.81243973D-05 -0.25463222D-04
  0.15037122D-01 -0.11350995D-01 -0.11333431D-01 -0.42181010D-06 -0.18999953D-04
  0.23378992D-04 -0.17700345D-01 -0.30023136D-01 -0.34180279D-01 -0.15021954D-01
  0.98440422D-02  0.38160972D-02 -0.53610309D-02 -0.17657281D-01 -0.29950090D-01
 -0.34097119D-01 -0.14990121D-01  0.98541504D-02  0.27314669D-02  0.59717343D-02
 -0.17703131D-01 -0.30027861D-01 -0.34185658D-01 -0.15024258D-01  0.98433844D-02
 -0.65512490D-02 -0.62048859D-03 -0.17713451D-01 -0.30045366D-01 -0.34205587D-01
 -0.15033645D-01 -0.98408859D-02 -0.38230469D-02  0.53529946D-02 -0.17640734D-01
 -0.29922024D-01 -0.34065166D-01 -0.14972347D-01 -0.98483706D-02 -0.27304087D-02
 -0.59775728D-02 -0.17704389D-01 -0.30029994D-01 -0.34188087D-01 -0.15026800D-01
 -0.98419405D-02  0.65482647D-02  0.61238247D-03
MO    8     MO 0.0        OCC NO =    2.0000000  ORB. ENERGY =   -0.339202
 -0.87931708D-05 -0.16221683D-04 -0.26186826D-04 -0.34087467D-04 -0.29086898D-04
 -0.10043007D-04 -0.14792674D-04 -0.68179301D-05  0.19118188D-04  0.10326703D-03
  0.79178605D-04  0.39515673D-04 -0.40516042D+00 -0.31065131D+00 -0.15503678D+00
  0.72497294D-02  0.55586326D-02  0.27741473D-02  0.62871200D-05  0.67668286D-05
 -0.21623590D-01  0.38662958D-03  0.68627439D-05  0.14247183D-01 -0.14261021D-01
  0.38040330D-01 -0.68832057D-03  0.88731116D-02 -0.63565422D-05 -0.11726579D-04
 -0.18930335D-04 -0.24641671D-04 -0.21026783D-04 -0.72600428D-05 -0.99946627D-05
 -0.46065309D-05  0.12917193D-04 -0.16328369D-03 -0.12519558D-03 -0.62481369D-04
  0.40542669D+00  0.31085547D+00  0.15513867D+00 -0.72131532D-02 -0.55305883D-02
 -0.27601512D-02  0.81282985D-05 -0.97618095D-05  0.21642306D-01 -0.38521292D-03
 -0.64067650D-06  0.14260710D-01 -0.14264984D-01  0.38036506D-01 -0.67280564D-03
  0.89111370D-02 -0.27674872D-01 -0.46941822D-01 -0.53441605D-01 -0.23769285D-01
 -0.25873166D-02 -0.46367412D-02 -0.76553716D-02 -0.18612704D-01 -0.31570669D-01
 -0.35942090D-01 -0.15984573D-01 -0.17334070D-02 -0.75210976D-02  0.60693740D-02
  0.46265834D-01  0.78475611D-01  0.89341709D-01  0.39736496D-01  0.43336632D-02
  0.57925533D-02  0.17000151D-02 -0.27692134D-01 -0.46971101D-01 -0.53474939D-01
 -0.23785265D-01  0.25882915D-02  0.46412787D-02  0.76612499D-02 -0.18610529D-01
 -0.31566979D-01 -0.35937890D-01 -0.15986073D-01  0.17405705D-02  0.75369646D-02
 -0.60655829D-02  0.46290913D-01  0.78518150D-01  0.89390139D-01  0.39760278D-01
 -0.43374385D-02 -0.57947193D-02 -0.17084641D-02
MO    9     MO 0.0        OCC NO =    2.0000000  ORB. ENERGY =   -0.339132
  0.74934948D-05  0.13824035D-04  0.22316278D-04  0.29049164D-04  0.24787704D-04
  0.85585985D-05  0.13858105D-04  0.63871879D-05 -0.17910342D-04 -0.31607586D-03
 -0.24234692D-03 -0.12094810D-03  0.72047872D-02  0.55241738D-02  0.27569499D-02
  0.40529834D+00  0.31075706D+00  0.15508955D+00 -0.58837700D-05 -0.19603458D-04
  0.38440149D-03  0.21638566D-01 -0.24171027D-04 -0.44340675D-02  0.44640695D-02
 -0.66915111D-03 -0.38019225D-01  0.28546713D-01  0.14214451D-04  0.26222887D-04
  0.42331870D-04  0.55103516D-04  0.47019930D-04  0.16234852D-04  0.23632345D-04
  0.10892126D-04 -0.30542659D-04  0.42906984D-03  0.32898354D-03  0.16418584D-03
 -0.72658282D-02 -0.55709763D-02 -0.27803076D-02 -0.40528367D+00 -0.31074581D+00
 -0.15508394D+00 -0.17923496D-04  0.23895299D-04 -0.38838540D-03 -0.21636184D-01
 -0.33525179D-05 -0.44482558D-02  0.44601573D-02 -0.68494531D-03 -0.38050170D-01
  0.28521314D-01 -0.37452705D-01 -0.63526877D-01 -0.72323104D-01 -0.32176130D-01
 -0.35142818D-02  0.77300156D-02 -0.38075686D-03  0.42712087D-01  0.72447784D-01
  0.82479241D-01  0.36692506D-01  0.39808743D-02 -0.59964187D-02 -0.32812454D-02
 -0.52105460D-02 -0.88380722D-02 -0.10061833D-01 -0.44769362D-02 -0.49486604D-03
 -0.16197209D-02  0.10050026D-01 -0.37447728D-01 -0.63518435D-01 -0.72313493D-01
 -0.32170721D-01  0.35138632D-02 -0.77310332D-02  0.38137881D-03  0.42716373D-01
  0.72455054D-01  0.82487518D-01  0.36699511D-01 -0.39916242D-02  0.59871892D-02
  0.32798553D-02 -0.52377656D-02 -0.88842418D-02 -0.10114395D-01 -0.44984549D-02
  0.50007141D-03  0.16290876D-02 -0.10048774D-01
END DATA
 THE  HF ENERGY =    -79.838739222583 THE VIRIAL(-V/T)=   2.01078038
