 Entering Gaussian System, Link 0=g09
 Input=provascan.com
 Output=provascan.log
 Initial command:
 /programs/64bit/g09/g09-gfortran/bin/l1.exe /data/scratch/Gau-4751.inp -scrdir=/data/scratch/
 Entering Link 1 = /programs/64bit/g09/g09-gfortran/bin/l1.exe PID=      4752.
  
 Copyright (c) 1988,1990,1992,1993,1995,1998,2003,2009, Gaussian, Inc.
                  All Rights Reserved.
  
 This is part of the Gaussian(R) 09 program.  It is based on
 the Gaussian(R) 03 system (copyright 2003, Gaussian, Inc.),
 the Gaussian(R) 98 system (copyright 1998, Gaussian, Inc.),
 the Gaussian(R) 94 system (copyright 1995, Gaussian, Inc.),
 the Gaussian 92(TM) system (copyright 1992, Gaussian, Inc.),
 the Gaussian 90(TM) system (copyright 1990, Gaussian, Inc.),
 the Gaussian 88(TM) system (copyright 1988, Gaussian, Inc.),
 the Gaussian 86(TM) system (copyright 1986, Carnegie Mellon
 University), and the Gaussian 82(TM) system (copyright 1983,
 Carnegie Mellon University). Gaussian is a federally registered
 trademark of Gaussian, Inc.
  
 This software contains proprietary and confidential information,
 including trade secrets, belonging to Gaussian, Inc.
  
 This software is provided under written license and may be
 used, copied, transmitted, or stored only in accord with that
 written license.
  
 The following legend is applicable only to US Government
 contracts under FAR:
  
                    RESTRICTED RIGHTS LEGEND
  
 Use, reproduction and disclosure by the US Government is
 subject to restrictions as set forth in subparagraphs (a)
 and (c) of the Commercial Computer Software - Restricted
 Rights clause in FAR 52.227-19.
  
 Gaussian, Inc.
 340 Quinnipiac St., Bldg. 40, Wallingford CT 06492
  
  
 ---------------------------------------------------------------
 Warning -- This program may not be used in any manner that
 competes with the business of Gaussian, Inc. or will provide
 assistance to any competitor of Gaussian, Inc.  The licensee
 of this program is prohibited from giving any competitor of
 Gaussian, Inc. access to this program.  By using this program,
 the user acknowledges that Gaussian, Inc. is engaged in the
 business of creating and licensing software in the field of
 computational chemistry and represents and warrants to the
 licensee that it is not a competitor of Gaussian, Inc. and that
 it will not use this program in any manner prohibited above.
 ---------------------------------------------------------------
  

 Cite this work as:
 Gaussian 09, Revision A.02,
 M. J. Frisch, G. W. Trucks, H. B. Schlegel, G. E. Scuseria, 
 M. A. Robb, J. R. Cheeseman, G. Scalmani, V. Barone, B. Mennucci, 
 G. A. Petersson, H. Nakatsuji, M. Caricato, X. Li, H. P. Hratchian, 
 A. F. Izmaylov, J. Bloino, G. Zheng, J. L. Sonnenberg, M. Hada, 
 M. Ehara, K. Toyota, R. Fukuda, J. Hasegawa, M. Ishida, T. Nakajima, 
 Y. Honda, O. Kitao, H. Nakai, T. Vreven, J. A. Montgomery, Jr., 
 J. E. Peralta, F. Ogliaro, M. Bearpark, J. J. Heyd, E. Brothers, 
 K. N. Kudin, V. N. Staroverov, R. Kobayashi, J. Normand, 
 K. Raghavachari, A. Rendell, J. C. Burant, S. S. Iyengar, J. Tomasi, 
 M. Cossi, N. Rega, J. M. Millam, M. Klene, J. E. Knox, J. B. Cross, 
 V. Bakken, C. Adamo, J. Jaramillo, R. Gomperts, R. E. Stratmann, 
 O. Yazyev, A. J. Austin, R. Cammi, C. Pomelli, J. W. Ochterski, 
 R. L. Martin, K. Morokuma, V. G. Zakrzewski, G. A. Voth, 
 P. Salvador, J. J. Dannenberg, S. Dapprich, A. D. Daniels, 
 O. Farkas, J. B. Foresman, J. V. Ortiz, J. Cioslowski, 
 and D. J. Fox, Gaussian, Inc., Wallingford CT, 2009.
 
 ******************************************
 Gaussian 09:  EM64L-G09RevA.02 11-Jun-2009
                22-Jun-2024 
 ******************************************
 %chk=tmp
 %mem=100MB
 -------------------------
 #p B3LYP/6-31+g(d,p) scan
 -------------------------
 1/38=1,60=1/1,8;
 2/12=2,17=6,18=5,29=3,40=1/2;
 3/5=1,6=6,7=111,11=2,16=1,25=1,30=1,74=-5/1,2,3;
 4//1;
 5/5=2,38=5/2;
 6/7=2,8=2,9=2,10=2,18=1,28=1/1;
 1/60=1/8(1);
 99/9=1/99;
 2/29=3/2;
 3/5=1,6=6,7=111,11=2,16=1,25=1,30=1,74=-5/1,2,3;
 4/5=5,16=3/1;
 5/5=2,38=5/2;
 1/60=1/8(-4);
 99/9=1/99;
 Leave Link    1 at Sat Jun 22 13:18:33 2024, MaxMem=   13107200 cpu:       0.0
 (Enter /programs/64bit/g09/g09-gfortran/bin/l101.exe)
 -----------------
 Hydrogen Molecule
 -----------------
 Symbolic Z-matrix:
 Charge =  0 Multiplicity = 1
 H
 H                    1    d
       Variables:
  d                     0.75   Scan 4     0.25   
 
 NAtoms=      2 NQM=      2 NQMF=      0 NMic=      0 NMicF=      0 NTot=      2.
                    Isotopes and Nuclear Properties:
 (Nuclear quadrupole moments (NQMom) in fm**2, nuclear magnetic moments (NMagM)
  in nuclear magnetons)

  Atom         1           2
 IAtWgt=           1           1
 AtmWgt=   1.0078250   1.0078250
 NucSpn=           1           1
 AtZEff=   0.0000000   0.0000000
 NQMom=    0.0000000   0.0000000
 NMagM=    2.7928460   2.7928460
 Leave Link  101 at Sat Jun 22 13:18:33 2024, MaxMem=   13107200 cpu:       0.0
 (Enter /programs/64bit/g09/g09-gfortran/bin/l108.exe)
 Scan the potential surface.
 Variable   Value     No. Steps Step-Size
 -------- ----------- --------- ---------
     1       0.750000       4      0.2500
 A total of      5 points will be computed.
 Leave Link  108 at Sat Jun 22 13:18:34 2024, MaxMem=   13107200 cpu:       0.0
 (Enter /programs/64bit/g09/g09-gfortran/bin/l202.exe)
 ---------------------------------------------------------------------------------------------------
                            Z-MATRIX (ANGSTROMS AND DEGREES)
   CD    Cent   Atom    N1       Length/X        N2       Alpha/Y        N3        Beta/Z          J
 ---------------------------------------------------------------------------------------------------
      1      1  H 
      2      2  H        1   0.750000(     1)
 ---------------------------------------------------------------------------------------------------
                         Z-Matrix orientation:                         
 ---------------------------------------------------------------------
 Center     Atomic      Atomic             Coordinates (Angstroms)
 Number     Number       Type             X           Y           Z
 ---------------------------------------------------------------------
      1          1           0        0.000000    0.000000    0.000000
      2          1           0        0.000000    0.000000    0.750000
 ---------------------------------------------------------------------
 Stoichiometry    H2
 Framework group  D*H[C*(H.H)]
 Deg. of freedom     1
 Full point group                 D*H     NOp   8
 Largest Abelian subgroup         D2H     NOp   8
 Largest concise Abelian subgroup C2      NOp   2
                         Standard orientation:                         
 ---------------------------------------------------------------------
 Center     Atomic      Atomic             Coordinates (Angstroms)
 Number     Number       Type             X           Y           Z
 ---------------------------------------------------------------------
      1          1           0        0.000000    0.000000    0.375000
      2          1           0        0.000000    0.000000   -0.375000
 ---------------------------------------------------------------------
 Rotational constants (GHZ):      0.0000000   1782.9514677   1782.9514677
 Leave Link  202 at Sat Jun 22 13:18:34 2024, MaxMem=   13107200 cpu:       0.0
 (Enter /programs/64bit/g09/g09-gfortran/bin/l301.exe)
 Standard basis: 6-31+G(d,p) (6D, 7F)
 Ernie: Thresh=  0.10000D-02 Tol=  0.10000D-05 Strict=F.
 There are     3 symmetry adapted basis functions of AG  symmetry.
 There are     0 symmetry adapted basis functions of B1G symmetry.
 There are     1 symmetry adapted basis functions of B2G symmetry.
 There are     1 symmetry adapted basis functions of B3G symmetry.
 There are     0 symmetry adapted basis functions of AU  symmetry.
 There are     3 symmetry adapted basis functions of B1U symmetry.
 There are     1 symmetry adapted basis functions of B2U symmetry.
 There are     1 symmetry adapted basis functions of B3U symmetry.
 Integral buffers will be    131072 words long.
 Raffenetti 2 integral format.
 Two-electron integral symmetry is turned on.
    10 basis functions,    14 primitive gaussians,    10 cartesian basis functions
     1 alpha electrons        1 beta electrons
       nuclear repulsion energy         0.7055696115 Hartrees.
 IExCor=  402 DFT=T Ex+Corr=B3LYP ExCW=0 ScaHFX=  0.200000
 ScaDFX=  0.800000  0.720000  1.000000  0.810000 ScalE2=  1.000000  1.000000
 IRadAn=      0 IRanWt=     -1 IRanGd=            0 ICorTp=0
 NAtoms=    2 NActive=    2 NUniq=    1 SFac= 3.00D+00 NAtFMM=   80 NAOKFM=F Big=F
 Leave Link  301 at Sat Jun 22 13:18:34 2024, MaxMem=   13107200 cpu:       0.0
 (Enter /programs/64bit/g09/g09-gfortran/bin/l302.exe)
 NPDir=0 NMtPBC=     1 NCelOv=     1 NCel=       1 NClECP=     1 NCelD=      1
         NCelK=      1 NCelE2=     1 NClLst=     1 CellRange=     0.0.
 One-electron integrals computed using PRISM.
 One-electron integral symmetry used in STVInt
 NBasis=    10 RedAO= T  NBF=     3     0     1     1     0     3     1     1
 NBsUse=    10 1.00D-06 NBFU=     3     0     1     1     0     3     1     1
 Precomputing XC quadrature grid using
 IXCGrd= 2 IRadAn=           0 IRanWt=          -1 IRanGd=           0 AccXCQ= 1.00D-10.
 NRdTot=     122 NPtTot=       15168 NUsed=       16061 NTot=       16093
 NSgBfM=    10    10    10    10    10 NAtAll=     2     2.
 Leave Link  302 at Sat Jun 22 13:18:34 2024, MaxMem=   13107200 cpu:       0.0
 (Enter /programs/64bit/g09/g09-gfortran/bin/l303.exe)
 DipDrv:  MaxL=1.
 Leave Link  303 at Sat Jun 22 13:18:34 2024, MaxMem=   13107200 cpu:       0.0
 (Enter /programs/64bit/g09/g09-gfortran/bin/l401.exe)
 Harris functional with IExCor=  402 diagonalized for initial guess.
 ExpMin= 1.61D-01 ExpMax= 1.87D+01 ExpMxC= 1.87D+01 IAcc=1 IRadAn=         1 AccDes= 0.00D+00
 HarFok:  IExCor=  402 AccDes= 0.00D+00 IRadAn=         1 IDoV= 1
 ScaDFX=  1.000000  1.000000  1.000000  1.000000
 FoFCou: FMM=F IPFlag=           0 FMFlag=      100000 FMFlg1=           0
         NFxFlg=           0 DoJE=T BraDBF=F KetDBF=T FulRan=T
         Omega=  0.000000  0.000000  1.000000  0.000000  0.000000 ICntrl=     500 IOpCl=  0
         NMat0=    1 NMatS0=    1 NMatT0=    0 NMatD0=    1 NMtDS0=    0 NMtDT0=    0
         I1Cent=           4 NGrid=           0.
 Petite list used in FoFCou.
 Harris En= -1.18455304864601    
 Initial guess orbital symmetries:
       Occupied  (SGG)
       Virtual   (SGU) (SGG) (SGU) (PIU) (PIU) (SGG) (PIG) (PIG)
                 (SGU)
 The electronic state of the initial guess is 1-SGG.
 Leave Link  401 at Sat Jun 22 13:18:34 2024, MaxMem=   13107200 cpu:       0.0
 (Enter /programs/64bit/g09/g09-gfortran/bin/l502.exe)
 Closed shell SCF:
 Requested convergence on RMS density matrix=1.00D-08 within 128 cycles.
 Requested convergence on MAX density matrix=1.00D-06.
 Requested convergence on             energy=1.00D-06.
 No special actions if energy rises.
 Using DIIS extrapolation, IDIIS=  1040.
 Integral symmetry usage will be decided dynamically.
        16030 words used for storage of precomputed grid.
 Keep R1 ints in memory in canonical form, NReq=894727.
 IEnd=       35823 IEndB=       35823 NGot=    13107200 MDV=    13086912
 LenX=    13086912 LenY=    13086030
 Symmetry not used in FoFDir.
 MinBra= 0 MaxBra= 1 Meth= 1.
 IRaf=       0 NMat=   1 IRICut=       1 DoRegI=T DoRafI=F ISym2E= 0 JSym2E=0.
 Integral accuracy reduced to 1.0D-05 until final iterations.

 Cycle   1  Pass 0  IDiag  1:
 E= -1.17338060691414    
 DIIS: error= 2.01D-02 at cycle   1 NSaved=   1.
 NSaved= 1 IEnMin= 1 EnMin= -1.17338060691414     IErMin= 1 ErrMin= 2.01D-02
 ErrMax= 2.01D-02 EMaxC= 1.00D-01 BMatC= 3.13D-03 BMatP= 3.13D-03
 IDIUse=3 WtCom= 7.99D-01 WtEn= 2.01D-01
 Coeff-Com:  0.100D+01
 Coeff-En:   0.100D+01
 Coeff:      0.100D+01
 Gap=     0.517 Goal=   None    Shift=    0.000
 GapD=    0.517 DampG=2.000 DampE=0.500 DampFc=1.0000 IDamp=-1.
 RMSDP=6.53D-03 MaxDP=2.62D-02              OVMax= 5.47D-02

 Cycle   2  Pass 0  IDiag  1:
 E= -1.17831996629648     Delta-E=       -0.004939359382 Rises=F Damp=F
 DIIS: error= 4.61D-03 at cycle   2 NSaved=   2.
 NSaved= 2 IEnMin= 2 EnMin= -1.17831996629648     IErMin= 2 ErrMin= 4.61D-03
 ErrMax= 4.61D-03 EMaxC= 1.00D-01 BMatC= 1.26D-04 BMatP= 3.13D-03
 IDIUse=3 WtCom= 9.54D-01 WtEn= 4.61D-02
 Coeff-Com:  0.165D+00 0.835D+00
 Coeff-En:   0.000D+00 0.100D+01
 Coeff:      0.157D+00 0.843D+00
 Gap=     0.529 Goal=   None    Shift=    0.000
 RMSDP=9.77D-04 MaxDP=3.74D-03 DE=-4.94D-03 OVMax= 8.54D-03

 Cycle   3  Pass 0  IDiag  1:
 E= -1.17850686756893     Delta-E=       -0.000186901272 Rises=F Damp=F
 DIIS: error= 4.58D-05 at cycle   3 NSaved=   3.
 NSaved= 3 IEnMin= 3 EnMin= -1.17850686756893     IErMin= 3 ErrMin= 4.58D-05
 ErrMax= 4.58D-05 EMaxC= 1.00D-01 BMatC= 1.04D-08 BMatP= 1.26D-04
 IDIUse=1 WtCom= 1.00D+00 WtEn= 0.00D+00
 Coeff-Com: -0.862D-02-0.404D-01 0.105D+01
 Coeff:     -0.862D-02-0.404D-01 0.105D+01
 Gap=     0.529 Goal=   None    Shift=    0.000
 RMSDP=8.05D-06 MaxDP=3.20D-05 DE=-1.87D-04 OVMax= 4.89D-05

 Initial convergence to 1.0D-05 achieved.  Increase integral accuracy.
 Cycle   4  Pass 1  IDiag  1:
 E= -1.17850460565744     Delta-E=        0.000002261911 Rises=F Damp=F
 DIIS: error= 1.54D-06 at cycle   1 NSaved=   1.
 NSaved= 1 IEnMin= 1 EnMin= -1.17850460565744     IErMin= 1 ErrMin= 1.54D-06
 ErrMax= 1.54D-06 EMaxC= 1.00D-01 BMatC= 1.33D-11 BMatP= 1.33D-11
 IDIUse=1 WtCom= 1.00D+00 WtEn= 0.00D+00
 Coeff-Com:  0.100D+01
 Coeff:      0.100D+01
 Gap=     0.529 Goal=   None    Shift=    0.000
 RMSDP=8.05D-06 MaxDP=3.20D-05 DE= 2.26D-06 OVMax= 3.24D-06

 Cycle   5  Pass 1  IDiag  1:
 E= -1.17850460567610     Delta-E=       -0.000000000019 Rises=F Damp=F
 DIIS: error= 2.68D-07 at cycle   2 NSaved=   2.
 NSaved= 2 IEnMin= 2 EnMin= -1.17850460567610     IErMin= 2 ErrMin= 2.68D-07
 ErrMax= 2.68D-07 EMaxC= 1.00D-01 BMatC= 4.61D-13 BMatP= 1.33D-11
 IDIUse=1 WtCom= 1.00D+00 WtEn= 0.00D+00
 Coeff-Com:  0.157D+00 0.843D+00
 Coeff:      0.157D+00 0.843D+00
 Gap=     0.529 Goal=   None    Shift=    0.000
 RMSDP=6.12D-08 MaxDP=2.37D-07 DE=-1.87D-11 OVMax= 5.30D-07

 Cycle   6  Pass 1  IDiag  1:
 E= -1.17850460567681     Delta-E=       -0.000000000001 Rises=F Damp=F
 DIIS: error= 2.27D-09 at cycle   3 NSaved=   3.
 NSaved= 3 IEnMin= 3 EnMin= -1.17850460567681     IErMin= 3 ErrMin= 2.27D-09
 ErrMax= 2.27D-09 EMaxC= 1.00D-01 BMatC= 2.08D-17 BMatP= 4.61D-13
 IDIUse=1 WtCom= 1.00D+00 WtEn= 0.00D+00
 Coeff-Com: -0.801D-02-0.371D-01 0.105D+01
 Coeff:     -0.801D-02-0.371D-01 0.105D+01
 Gap=     0.529 Goal=   None    Shift=    0.000
 RMSDP=2.12D-10 MaxDP=6.40D-10 DE=-7.05D-13 OVMax= 2.03D-09

 SCF Done:  E(RB3LYP) =  -1.17850460568     A.U. after    6 cycles
             Convg  =    0.2116D-09             -V/T =  2.0373
 KE= 1.136171902675D+00 PE=-3.629445650942D+00 EE= 6.091995311370D-01
 Leave Link  502 at Sat Jun 22 13:18:34 2024, MaxMem=   13107200 cpu:       0.1
 (Enter /programs/64bit/g09/g09-gfortran/bin/l601.exe)
 Copying SCF densities to generalized density rwf, IOpCl= 0 IROHF=0.

 **********************************************************************

            Population analysis using the SCF density.

 **********************************************************************

 Orbital symmetries:
       Occupied  (SGG)
       Virtual   (SGU) (SGG) (SGU) (PIU) (PIU) (SGG) (PIG) (PIG)
                 (SGU)
 The electronic state is 1-SGG.
 Alpha  occ. eigenvalues --   -0.43009
 Alpha virt. eigenvalues --    0.09892   0.57963   1.03022   1.67546   1.67546
 Alpha virt. eigenvalues --    2.36520   2.60765   2.60765   4.11828
          Condensed to atoms (all electrons):
              1          2
     1  H    0.590289   0.409711
     2  H    0.409711   0.590289
 Mulliken atomic charges:
              1
     1  H   -0.000000
     2  H   -0.000000
 Sum of Mulliken atomic charges =  -0.00000
 Mulliken charges with hydrogens summed into heavy atoms:
              1
 Sum of Mulliken charges with hydrogens summed into heavy atoms =  -0.00000
 Electronic spatial extent (au):  <R**2>=              5.1570
 Charge=             -0.0000 electrons
 Dipole moment (field-independent basis, Debye):
    X=             -0.0000    Y=              0.0000    Z=             -0.0000  Tot=              0.0000
 Quadrupole moment (field-independent basis, Debye-Ang):
   XX=             -2.0383   YY=             -2.0383   ZZ=             -1.5088
   XY=             -0.0000   XZ=             -0.0000   YZ=              0.0000
 Traceless Quadrupole moment (field-independent basis, Debye-Ang):
   XX=             -0.1765   YY=             -0.1765   ZZ=              0.3530
   XY=             -0.0000   XZ=             -0.0000   YZ=              0.0000
 Octapole moment (field-independent basis, Debye-Ang**2):
  XXX=             -0.0000  YYY=             -0.0000  ZZZ=             -0.0000  XYY=             -0.0000
  XXY=              0.0000  XXZ=             -0.0000  XZZ=             -0.0000  YZZ=              0.0000
  YYZ=             -0.0000  XYZ=              0.0000
 Hexadecapole moment (field-independent basis, Debye-Ang**3):
 XXXX=             -1.8899 YYYY=             -1.8899 ZZZZ=             -2.8043 XXXY=             -0.0000
 XXXZ=              0.0000 YYYX=             -0.0000 YYYZ=              0.0000 ZZZX=              0.0000
 ZZZY=              0.0000 XXYY=             -0.6300 XXZZ=             -0.7977 YYZZ=             -0.7977
 XXYZ=              0.0000 YYXZ=              0.0000 ZZXY=             -0.0000
 N-N= 7.055696114533D-01 E-N=-3.629445649313D+00  KE= 1.136171902675D+00
 Symmetry AG   KE= 1.136171902675D+00
 Symmetry B1G  KE= 0.000000000000D+00
 Symmetry B2G  KE= 2.197753436544D-34
 Symmetry B3G  KE= 2.197753436544D-34
 Symmetry AU   KE= 0.000000000000D+00
 Symmetry B1U  KE= 3.910120165699D-33
 Symmetry B2U  KE= 6.423861110801D-35
 Symmetry B3U  KE= 6.423861110801D-35
 No NMR shielding tensors so no spin-rotation constants.
 Leave Link  601 at Sat Jun 22 13:18:34 2024, MaxMem=   13107200 cpu:       0.1
 (Enter /programs/64bit/g09/g09-gfortran/bin/l108.exe)
 Variable Step   Value    
 -------- ---- -----------
     1       1    1.889726
 Leave Link  108 at Sat Jun 22 13:18:34 2024, MaxMem=   13107200 cpu:       0.0
 (Enter /programs/64bit/g09/g09-gfortran/bin/l202.exe)
 ---------------------------------------------------------------------------------------------------
                            Z-MATRIX (ANGSTROMS AND DEGREES)
   CD    Cent   Atom    N1       Length/X        N2       Alpha/Y        N3        Beta/Z          J
 ---------------------------------------------------------------------------------------------------
      1      1  H 
      2      2  H        1   1.000000(     1)
 ---------------------------------------------------------------------------------------------------
                         Z-Matrix orientation:                         
 ---------------------------------------------------------------------
 Center     Atomic      Atomic             Coordinates (Angstroms)
 Number     Number       Type             X           Y           Z
 ---------------------------------------------------------------------
      1          1           0        0.000000    0.000000    0.000000
      2          1           0        0.000000    0.000000    1.000000
 ---------------------------------------------------------------------
 Stoichiometry    H2
 Framework group  D*H[C*(H.H)]
 Deg. of freedom     1
 Full point group                 D*H     NOp   8
 Largest Abelian subgroup         D2H     NOp   8
 Largest concise Abelian subgroup C2      NOp   2
                         Standard orientation:                         
 ---------------------------------------------------------------------
 Center     Atomic      Atomic             Coordinates (Angstroms)
 Number     Number       Type             X           Y           Z
 ---------------------------------------------------------------------
      1          1           0        0.000000    0.000000    0.500000
      2          1           0        0.000000    0.000000   -0.500000
 ---------------------------------------------------------------------
 Rotational constants (GHZ):      0.0000000   1002.9102006   1002.9102006
 Leave Link  202 at Sat Jun 22 13:18:34 2024, MaxMem=   13107200 cpu:       0.0
 (Enter /programs/64bit/g09/g09-gfortran/bin/l301.exe)
 Standard basis: 6-31+G(d,p) (6D, 7F)
 Ernie: Thresh=  0.10000D-02 Tol=  0.10000D-05 Strict=F.
 There are     3 symmetry adapted basis functions of AG  symmetry.
 There are     0 symmetry adapted basis functions of B1G symmetry.
 There are     1 symmetry adapted basis functions of B2G symmetry.
 There are     1 symmetry adapted basis functions of B3G symmetry.
 There are     0 symmetry adapted basis functions of AU  symmetry.
 There are     3 symmetry adapted basis functions of B1U symmetry.
 There are     1 symmetry adapted basis functions of B2U symmetry.
 There are     1 symmetry adapted basis functions of B3U symmetry.
 Integral buffers will be    131072 words long.
 Raffenetti 2 integral format.
 Two-electron integral symmetry is turned on.
    10 basis functions,    14 primitive gaussians,    10 cartesian basis functions
     1 alpha electrons        1 beta electrons
       nuclear repulsion energy         0.5291772086 Hartrees.
 IExCor=  402 DFT=T Ex+Corr=B3LYP ExCW=0 ScaHFX=  0.200000
 ScaDFX=  0.800000  0.720000  1.000000  0.810000 ScalE2=  1.000000  1.000000
 IRadAn=      0 IRanWt=     -1 IRanGd=            0 ICorTp=0
 NAtoms=    2 NActive=    2 NUniq=    1 SFac= 3.00D+00 NAtFMM=   80 NAOKFM=F Big=F
 Leave Link  301 at Sat Jun 22 13:18:34 2024, MaxMem=   13107200 cpu:       0.0
 (Enter /programs/64bit/g09/g09-gfortran/bin/l302.exe)
 NPDir=0 NMtPBC=     1 NCelOv=     1 NCel=       1 NClECP=     1 NCelD=      1
         NCelK=      1 NCelE2=     1 NClLst=     1 CellRange=     0.0.
 One-electron integrals computed using PRISM.
 One-electron integral symmetry used in STVInt
 NBasis=    10 RedAO= T  NBF=     3     0     1     1     0     3     1     1
 NBsUse=    10 1.00D-06 NBFU=     3     0     1     1     0     3     1     1
 Precomputing XC quadrature grid using
 IXCGrd= 2 IRadAn=           0 IRanWt=          -1 IRanGd=           0 AccXCQ= 1.00D-10.
 NRdTot=     122 NPtTot=       15168 NUsed=       16061 NTot=       16093
 NSgBfM=    10    10    10    10    10 NAtAll=     2     2.
 Leave Link  302 at Sat Jun 22 13:18:34 2024, MaxMem=   13107200 cpu:       0.1
 (Enter /programs/64bit/g09/g09-gfortran/bin/l303.exe)
 DipDrv:  MaxL=1.
 Leave Link  303 at Sat Jun 22 13:18:34 2024, MaxMem=   13107200 cpu:       0.0
 (Enter /programs/64bit/g09/g09-gfortran/bin/l401.exe)
 Initial guess read from the read-write file.
 B after Tr=     0.000000    0.000000    0.000000
         Rot=    1.000000    0.000000    0.000000    0.000000 Ang=   0.00 deg.
 Guess basis will be translated and rotated to current coordinates.
 Initial guess orbital symmetries:
       Occupied  (SGG)
       Virtual   (SGU) (SGG) (SGU) (PIU) (PIU) (SGG) (PIG) (PIG)
                 (SGU)
 The electronic state of the initial guess is 1-SGG.
 Generating alternative initial guess.
 Harris functional with IExCor=  402 diagonalized for initial guess.
 ExpMin= 1.61D-01 ExpMax= 1.87D+01 ExpMxC= 1.87D+01 IAcc=1 IRadAn=         1 AccDes= 0.00D+00
 HarFok:  IExCor=  402 AccDes= 0.00D+00 IRadAn=         1 IDoV= 1
 ScaDFX=  1.000000  1.000000  1.000000  1.000000
 FoFCou: FMM=F IPFlag=           0 FMFlag=      100000 FMFlg1=           0
         NFxFlg=           0 DoJE=T BraDBF=F KetDBF=T FulRan=T
         Omega=  0.000000  0.000000  1.000000  0.000000  0.000000 ICntrl=     500 IOpCl=  0
         NMat0=    1 NMatS0=    1 NMatT0=    0 NMatD0=    1 NMtDS0=    0 NMtDT0=    0
         I1Cent=           4 NGrid=           0.
 Petite list used in FoFCou.
 Harris En= -1.14827065613863    
 Leave Link  401 at Sat Jun 22 13:18:34 2024, MaxMem=   13107200 cpu:       0.1
 (Enter /programs/64bit/g09/g09-gfortran/bin/l502.exe)
 Closed shell SCF:
 Requested convergence on RMS density matrix=1.00D-08 within 128 cycles.
 Requested convergence on MAX density matrix=1.00D-06.
 Requested convergence on             energy=1.00D-06.
 No special actions if energy rises.
 Using DIIS extrapolation, IDIIS=  1040.
 Integral symmetry usage will be decided dynamically.
        16030 words used for storage of precomputed grid.
 Keep R1 ints in memory in canonical form, NReq=894727.
 IEnd=       35823 IEndB=       35823 NGot=    13107200 MDV=    13086912
 LenX=    13086912 LenY=    13086030
 Symmetry not used in FoFDir.
 MinBra= 0 MaxBra= 1 Meth= 1.
 IRaf=       0 NMat=   1 IRICut=       1 DoRegI=T DoRafI=F ISym2E= 0 JSym2E=0.
 Integral accuracy reduced to 1.0D-05 until final iterations.

 Cycle   1  Pass 0  IDiag  1:
 E= -1.14531067923783    
 DIIS: error= 2.78D-02 at cycle   1 NSaved=   1.
 NSaved= 1 IEnMin= 1 EnMin= -1.14531067923783     IErMin= 1 ErrMin= 2.78D-02
 ErrMax= 2.78D-02 EMaxC= 1.00D-01 BMatC= 3.36D-03 BMatP= 3.36D-03
 IDIUse=3 WtCom= 7.22D-01 WtEn= 2.78D-01
 Coeff-Com:  0.100D+01
 Coeff-En:   0.100D+01
 Coeff:      0.100D+01
 Recover alternate guess density for next cycle.
 RMSDP=3.04D-03 MaxDP=1.22D-02              OVMax= 0.00D+00

 Cycle   2  Pass 0  IDiag  1:
 E= -1.14910996401107     Delta-E=       -0.003799284773 Rises=F Damp=F
 DIIS: error= 1.48D-02 at cycle   2 NSaved=   2.
 NSaved= 2 IEnMin= 2 EnMin= -1.14910996401107     IErMin= 2 ErrMin= 1.48D-02
 ErrMax= 1.48D-02 EMaxC= 1.00D-01 BMatC= 1.13D-03 BMatP= 3.36D-03
 IDIUse=3 WtCom= 8.52D-01 WtEn= 1.48D-01
 Coeff-Com: -0.112D+01 0.212D+01
 Coeff-En:   0.000D+00 0.100D+01
 Coeff:     -0.951D+00 0.195D+01
 Gap=     0.527 Goal=   None    Shift=    0.000
 RMSDP=3.96D-03 MaxDP=1.49D-02 DE=-3.80D-03 OVMax= 5.02D-02

 Cycle   3  Pass 0  IDiag  1:
 E= -1.15099353920143     Delta-E=       -0.001883575190 Rises=F Damp=F
 DIIS: error= 7.18D-04 at cycle   3 NSaved=   3.
 NSaved= 3 IEnMin= 3 EnMin= -1.15099353920143     IErMin= 3 ErrMin= 7.18D-04
 ErrMax= 7.18D-04 EMaxC= 1.00D-01 BMatC= 3.37D-06 BMatP= 1.13D-03
 IDIUse=3 WtCom= 9.93D-01 WtEn= 7.18D-03
 Coeff-Com: -0.251D-01 0.924D-01 0.933D+00
 Coeff-En:   0.000D+00 0.000D+00 0.100D+01
 Coeff:     -0.249D-01 0.918D-01 0.933D+00
 Gap=     0.414 Goal=   None    Shift=    0.000
 RMSDP=1.92D-04 MaxDP=6.94D-04 DE=-1.88D-03 OVMax= 1.48D-03

 Cycle   4  Pass 0  IDiag  1:
 E= -1.15099895594704     Delta-E=       -0.000005416746 Rises=F Damp=F
 DIIS: error= 7.69D-07 at cycle   4 NSaved=   4.
 NSaved= 4 IEnMin= 4 EnMin= -1.15099895594704     IErMin= 4 ErrMin= 7.69D-07
 ErrMax= 7.69D-07 EMaxC= 1.00D-01 BMatC= 2.98D-12 BMatP= 3.37D-06
 IDIUse=1 WtCom= 1.00D+00 WtEn= 0.00D+00
 Coeff-Com: -0.536D-04-0.734D-04-0.304D-02 0.100D+01
 Coeff:     -0.536D-04-0.734D-04-0.304D-02 0.100D+01
 Gap=     0.414 Goal=   None    Shift=    0.000
 RMSDP=7.89D-08 MaxDP=2.25D-07 DE=-5.42D-06 OVMax= 1.44D-07

 Initial convergence to 1.0D-05 achieved.  Increase integral accuracy.
 Cycle   5  Pass 1  IDiag  1:
 E= -1.15099889052720     Delta-E=        0.000000065420 Rises=F Damp=F
 DIIS: error= 2.65D-08 at cycle   1 NSaved=   1.
 NSaved= 1 IEnMin= 1 EnMin= -1.15099889052720     IErMin= 1 ErrMin= 2.65D-08
 ErrMax= 2.65D-08 EMaxC= 1.00D-01 BMatC= 3.47D-15 BMatP= 3.47D-15
 IDIUse=1 WtCom= 1.00D+00 WtEn= 0.00D+00
 Coeff-Com:  0.100D+01
 Coeff:      0.100D+01
 Gap=     0.414 Goal=   None    Shift=    0.000
 RMSDP=7.89D-08 MaxDP=2.25D-07 DE= 6.54D-08 OVMax= 3.15D-09

 Cycle   6  Pass 1  IDiag  1:
 E= -1.15099889052720     Delta-E=       -0.000000000000 Rises=F Damp=F
 DIIS: error= 1.06D-09 at cycle   2 NSaved=   2.
 NSaved= 2 IEnMin= 2 EnMin= -1.15099889052720     IErMin= 2 ErrMin= 1.06D-09
 ErrMax= 1.06D-09 EMaxC= 1.00D-01 BMatC= 6.07D-18 BMatP= 3.47D-15
 IDIUse=1 WtCom= 1.00D+00 WtEn= 0.00D+00
 Coeff-Com: -0.354D-01 0.104D+01
 Coeff:     -0.354D-01 0.104D+01
 Gap=     0.414 Goal=   None    Shift=    0.000
 RMSDP=2.39D-10 MaxDP=8.90D-10 DE=-3.11D-15 OVMax= 1.46D-09

 SCF Done:  E(RB3LYP) =  -1.15099889053     A.U. after    6 cycles
             Convg  =    0.2390D-09             -V/T =  2.1937
 KE= 9.641936874078D-01 PE=-3.176142617489D+00 EE= 5.317728309640D-01
 Leave Link  502 at Sat Jun 22 13:18:34 2024, MaxMem=   13107200 cpu:       0.0
 (Enter /programs/64bit/g09/g09-gfortran/bin/l108.exe)
 Variable Step   Value    
 -------- ---- -----------
     1       2    2.362158
 Leave Link  108 at Sat Jun 22 13:18:34 2024, MaxMem=   13107200 cpu:       0.0
 (Enter /programs/64bit/g09/g09-gfortran/bin/l202.exe)
 ---------------------------------------------------------------------------------------------------
                            Z-MATRIX (ANGSTROMS AND DEGREES)
   CD    Cent   Atom    N1       Length/X        N2       Alpha/Y        N3        Beta/Z          J
 ---------------------------------------------------------------------------------------------------
      1      1  H 
      2      2  H        1   1.250000(     1)
 ---------------------------------------------------------------------------------------------------
                         Z-Matrix orientation:                         
 ---------------------------------------------------------------------
 Center     Atomic      Atomic             Coordinates (Angstroms)
 Number     Number       Type             X           Y           Z
 ---------------------------------------------------------------------
      1          1           0        0.000000    0.000000    0.000000
      2          1           0        0.000000    0.000000    1.250000
 ---------------------------------------------------------------------
 Stoichiometry    H2
 Framework group  D*H[C*(H.H)]
 Deg. of freedom     1
 Full point group                 D*H     NOp   8
 Largest Abelian subgroup         D2H     NOp   8
 Largest concise Abelian subgroup C2      NOp   2
                         Standard orientation:                         
 ---------------------------------------------------------------------
 Center     Atomic      Atomic             Coordinates (Angstroms)
 Number     Number       Type             X           Y           Z
 ---------------------------------------------------------------------
      1          1           0        0.000000    0.000000    0.625000
      2          1           0        0.000000    0.000000   -0.625000
 ---------------------------------------------------------------------
 Rotational constants (GHZ):      0.0000000    641.8625284    641.8625284
 Leave Link  202 at Sat Jun 22 13:18:35 2024, MaxMem=   13107200 cpu:       0.0
 (Enter /programs/64bit/g09/g09-gfortran/bin/l301.exe)
 Standard basis: 6-31+G(d,p) (6D, 7F)
 Ernie: Thresh=  0.10000D-02 Tol=  0.10000D-05 Strict=F.
 There are     3 symmetry adapted basis functions of AG  symmetry.
 There are     0 symmetry adapted basis functions of B1G symmetry.
 There are     1 symmetry adapted basis functions of B2G symmetry.
 There are     1 symmetry adapted basis functions of B3G symmetry.
 There are     0 symmetry adapted basis functions of AU  symmetry.
 There are     3 symmetry adapted basis functions of B1U symmetry.
 There are     1 symmetry adapted basis functions of B2U symmetry.
 There are     1 symmetry adapted basis functions of B3U symmetry.
 Integral buffers will be    131072 words long.
 Raffenetti 2 integral format.
 Two-electron integral symmetry is turned on.
    10 basis functions,    14 primitive gaussians,    10 cartesian basis functions
     1 alpha electrons        1 beta electrons
       nuclear repulsion energy         0.4233417669 Hartrees.
 IExCor=  402 DFT=T Ex+Corr=B3LYP ExCW=0 ScaHFX=  0.200000
 ScaDFX=  0.800000  0.720000  1.000000  0.810000 ScalE2=  1.000000  1.000000
 IRadAn=      0 IRanWt=     -1 IRanGd=            0 ICorTp=0
 NAtoms=    2 NActive=    2 NUniq=    1 SFac= 3.00D+00 NAtFMM=   80 NAOKFM=F Big=F
 Leave Link  301 at Sat Jun 22 13:18:35 2024, MaxMem=   13107200 cpu:       0.0
 (Enter /programs/64bit/g09/g09-gfortran/bin/l302.exe)
 NPDir=0 NMtPBC=     1 NCelOv=     1 NCel=       1 NClECP=     1 NCelD=      1
         NCelK=      1 NCelE2=     1 NClLst=     1 CellRange=     0.0.
 One-electron integrals computed using PRISM.
 One-electron integral symmetry used in STVInt
 NBasis=    10 RedAO= T  NBF=     3     0     1     1     0     3     1     1
 NBsUse=    10 1.00D-06 NBFU=     3     0     1     1     0     3     1     1
 Precomputing XC quadrature grid using
 IXCGrd= 2 IRadAn=           0 IRanWt=          -1 IRanGd=           0 AccXCQ= 1.00D-10.
 NRdTot=     122 NPtTot=       15168 NUsed=       16061 NTot=       16093
 NSgBfM=    10    10    10    10    10 NAtAll=     2     2.
 Leave Link  302 at Sat Jun 22 13:18:35 2024, MaxMem=   13107200 cpu:       0.0
 (Enter /programs/64bit/g09/g09-gfortran/bin/l303.exe)
 DipDrv:  MaxL=1.
 Leave Link  303 at Sat Jun 22 13:18:35 2024, MaxMem=   13107200 cpu:       0.0
 (Enter /programs/64bit/g09/g09-gfortran/bin/l401.exe)
 Initial guess read from the read-write file.
 B after Tr=     0.000000    0.000000    0.000000
         Rot=    1.000000    0.000000    0.000000    0.000000 Ang=   0.00 deg.
 Guess basis will be translated and rotated to current coordinates.
 Initial guess orbital symmetries:
       Occupied  (SGG)
       Virtual   (SGU) (SGG) (SGU) (PIU) (PIU) (SGG) (PIG) (PIG)
                 (SGU)
 The electronic state of the initial guess is 1-SGG.
 Generating alternative initial guess.
 Harris functional with IExCor=  402 diagonalized for initial guess.
 ExpMin= 1.61D-01 ExpMax= 1.87D+01 ExpMxC= 1.87D+01 IAcc=1 IRadAn=         1 AccDes= 0.00D+00
 HarFok:  IExCor=  402 AccDes= 0.00D+00 IRadAn=         1 IDoV= 1
 ScaDFX=  1.000000  1.000000  1.000000  1.000000
 FoFCou: FMM=F IPFlag=           0 FMFlag=      100000 FMFlg1=           0
         NFxFlg=           0 DoJE=T BraDBF=F KetDBF=T FulRan=T
         Omega=  0.000000  0.000000  1.000000  0.000000  0.000000 ICntrl=     500 IOpCl=  0
         NMat0=    1 NMatS0=    1 NMatT0=    0 NMatD0=    1 NMtDS0=    0 NMtDT0=    0
         I1Cent=           4 NGrid=           0.
 Petite list used in FoFCou.
 Harris En= -1.10166149511182    
 Leave Link  401 at Sat Jun 22 13:18:35 2024, MaxMem=   13107200 cpu:       0.1
 (Enter /programs/64bit/g09/g09-gfortran/bin/l502.exe)
 Closed shell SCF:
 Requested convergence on RMS density matrix=1.00D-08 within 128 cycles.
 Requested convergence on MAX density matrix=1.00D-06.
 Requested convergence on             energy=1.00D-06.
 No special actions if energy rises.
 Using DIIS extrapolation, IDIIS=  1040.
 Integral symmetry usage will be decided dynamically.
        16030 words used for storage of precomputed grid.
 Keep R1 ints in memory in canonical form, NReq=894727.
 IEnd=       35823 IEndB=       35823 NGot=    13107200 MDV=    13086912
 LenX=    13086912 LenY=    13086030
 Symmetry not used in FoFDir.
 MinBra= 0 MaxBra= 1 Meth= 1.
 IRaf=       0 NMat=   1 IRICut=       1 DoRegI=T DoRafI=F ISym2E= 0 JSym2E=0.
 Integral accuracy reduced to 1.0D-05 until final iterations.

 Cycle   1  Pass 0  IDiag  1:
 E= -1.10279630745279    
 DIIS: error= 2.13D-02 at cycle   1 NSaved=   1.
 NSaved= 1 IEnMin= 1 EnMin= -1.10279630745279     IErMin= 1 ErrMin= 2.13D-02
 ErrMax= 2.13D-02 EMaxC= 1.00D-01 BMatC= 1.89D-03 BMatP= 1.89D-03
 IDIUse=3 WtCom= 7.87D-01 WtEn= 2.13D-01
 Coeff-Com:  0.100D+01
 Coeff-En:   0.100D+01
 Coeff:      0.100D+01
 Recover alternate guess density for next cycle.
 RMSDP=2.73D-03 MaxDP=1.00D-02              OVMax= 0.00D+00

 Cycle   2  Pass 0  IDiag  1:
 E= -1.10516169876054     Delta-E=       -0.002365391308 Rises=F Damp=F
 DIIS: error= 1.05D-02 at cycle   2 NSaved=   2.
 NSaved= 2 IEnMin= 2 EnMin= -1.10516169876054     IErMin= 2 ErrMin= 1.05D-02
 ErrMax= 1.05D-02 EMaxC= 1.00D-01 BMatC= 4.83D-04 BMatP= 1.89D-03
 IDIUse=3 WtCom= 8.95D-01 WtEn= 1.05D-01
 Coeff-Com: -0.983D+00 0.198D+01
 Coeff-En:   0.000D+00 0.100D+01
 Coeff:     -0.880D+00 0.188D+01
 Gap=     0.350 Goal=   None    Shift=    0.000
 RMSDP=2.73D-03 MaxDP=9.46D-03 DE=-2.37D-03 OVMax= 3.65D-02

 Cycle   3  Pass 0  IDiag  1:
 E= -1.10596598491328     Delta-E=       -0.000804286153 Rises=F Damp=F
 DIIS: error= 1.41D-04 at cycle   3 NSaved=   3.
 NSaved= 3 IEnMin= 3 EnMin= -1.10596598491328     IErMin= 3 ErrMin= 1.41D-04
 ErrMax= 1.41D-04 EMaxC= 1.00D-01 BMatC= 1.08D-07 BMatP= 4.83D-04
 IDIUse=3 WtCom= 9.99D-01 WtEn= 1.41D-03
 Coeff-Com: -0.148D-01 0.432D-01 0.972D+00
 Coeff-En:   0.000D+00 0.000D+00 0.100D+01
 Coeff:     -0.148D-01 0.432D-01 0.972D+00
 Gap=     0.318 Goal=   None    Shift=    0.000
 RMSDP=3.75D-05 MaxDP=1.29D-04 DE=-8.04D-04 OVMax= 2.60D-04

 Cycle   4  Pass 0  IDiag  1:
 E= -1.10596615596920     Delta-E=       -0.000000171056 Rises=F Damp=F
 DIIS: error= 2.60D-07 at cycle   4 NSaved=   4.
 NSaved= 4 IEnMin= 4 EnMin= -1.10596615596920     IErMin= 4 ErrMin= 2.60D-07
 ErrMax= 2.60D-07 EMaxC= 1.00D-01 BMatC= 3.86D-13 BMatP= 1.08D-07
 IDIUse=1 WtCom= 1.00D+00 WtEn= 0.00D+00
 Coeff-Com: -0.524D-04 0.447D-04-0.272D-02 0.100D+01
 Coeff:     -0.524D-04 0.447D-04-0.272D-02 0.100D+01
 Gap=     0.318 Goal=   None    Shift=    0.000
 RMSDP=6.34D-08 MaxDP=2.15D-07 DE=-1.71D-07 OVMax= 3.75D-07

 Initial convergence to 1.0D-05 achieved.  Increase integral accuracy.
 Cycle   5  Pass 1  IDiag  1:
 E= -1.10596591359295     Delta-E=        0.000000242376 Rises=F Damp=F
 DIIS: error= 2.76D-07 at cycle   1 NSaved=   1.
 NSaved= 1 IEnMin= 1 EnMin= -1.10596591359295     IErMin= 1 ErrMin= 2.76D-07
 ErrMax= 2.76D-07 EMaxC= 1.00D-01 BMatC= 5.33D-13 BMatP= 5.33D-13
 IDIUse=1 WtCom= 1.00D+00 WtEn= 0.00D+00
 Coeff-Com:  0.100D+01
 Coeff:      0.100D+01
 Gap=     0.318 Goal=   None    Shift=    0.000
 RMSDP=6.34D-08 MaxDP=2.15D-07 DE= 2.42D-07 OVMax= 5.78D-07

 Cycle   6  Pass 1  IDiag  1:
 E= -1.10596591359374     Delta-E=       -0.000000000001 Rises=F Damp=F
 DIIS: error= 2.48D-08 at cycle   2 NSaved=   2.
 NSaved= 2 IEnMin= 2 EnMin= -1.10596591359374     IErMin= 2 ErrMin= 2.48D-08
 ErrMax= 2.48D-08 EMaxC= 1.00D-01 BMatC= 4.06D-15 BMatP= 5.33D-13
 IDIUse=1 WtCom= 1.00D+00 WtEn= 0.00D+00
 Coeff-Com:  0.802D-01 0.920D+00
 Coeff:      0.802D-01 0.920D+00
 Gap=     0.318 Goal=   None    Shift=    0.000
 RMSDP=6.77D-09 MaxDP=2.32D-08 DE=-7.84D-13 OVMax= 4.73D-08

 SCF Done:  E(RB3LYP) =  -1.10596591359     A.U. after    6 cycles
             Convg  =    0.6765D-08             -V/T =  2.2719
 KE= 8.695063323418D-01 PE=-2.870942024123D+00 EE= 4.721280113157D-01
 Leave Link  502 at Sat Jun 22 13:18:35 2024, MaxMem=   13107200 cpu:       0.1
 (Enter /programs/64bit/g09/g09-gfortran/bin/l108.exe)
 Variable Step   Value    
 -------- ---- -----------
     1       3    2.834589
 Leave Link  108 at Sat Jun 22 13:18:35 2024, MaxMem=   13107200 cpu:       0.0
 (Enter /programs/64bit/g09/g09-gfortran/bin/l202.exe)
 ---------------------------------------------------------------------------------------------------
                            Z-MATRIX (ANGSTROMS AND DEGREES)
   CD    Cent   Atom    N1       Length/X        N2       Alpha/Y        N3        Beta/Z          J
 ---------------------------------------------------------------------------------------------------
      1      1  H 
      2      2  H        1   1.500000(     1)
 ---------------------------------------------------------------------------------------------------
                         Z-Matrix orientation:                         
 ---------------------------------------------------------------------
 Center     Atomic      Atomic             Coordinates (Angstroms)
 Number     Number       Type             X           Y           Z
 ---------------------------------------------------------------------
      1          1           0        0.000000    0.000000    0.000000
      2          1           0        0.000000    0.000000    1.500000
 ---------------------------------------------------------------------
 Stoichiometry    H2
 Framework group  D*H[C*(H.H)]
 Deg. of freedom     1
 Full point group                 D*H     NOp   8
 Largest Abelian subgroup         D2H     NOp   8
 Largest concise Abelian subgroup C2      NOp   2
                         Standard orientation:                         
 ---------------------------------------------------------------------
 Center     Atomic      Atomic             Coordinates (Angstroms)
 Number     Number       Type             X           Y           Z
 ---------------------------------------------------------------------
      1          1           0        0.000000    0.000000    0.750000
      2          1           0        0.000000    0.000000   -0.750000
 ---------------------------------------------------------------------
 Rotational constants (GHZ):      0.0000000    445.7378669    445.7378669
 Leave Link  202 at Sat Jun 22 13:18:35 2024, MaxMem=   13107200 cpu:       0.0
 (Enter /programs/64bit/g09/g09-gfortran/bin/l301.exe)
 Standard basis: 6-31+G(d,p) (6D, 7F)
 Ernie: Thresh=  0.10000D-02 Tol=  0.10000D-05 Strict=F.
 There are     3 symmetry adapted basis functions of AG  symmetry.
 There are     0 symmetry adapted basis functions of B1G symmetry.
 There are     1 symmetry adapted basis functions of B2G symmetry.
 There are     1 symmetry adapted basis functions of B3G symmetry.
 There are     0 symmetry adapted basis functions of AU  symmetry.
 There are     3 symmetry adapted basis functions of B1U symmetry.
 There are     1 symmetry adapted basis functions of B2U symmetry.
 There are     1 symmetry adapted basis functions of B3U symmetry.
 Integral buffers will be    131072 words long.
 Raffenetti 2 integral format.
 Two-electron integral symmetry is turned on.
    10 basis functions,    14 primitive gaussians,    10 cartesian basis functions
     1 alpha electrons        1 beta electrons
       nuclear repulsion energy         0.3527848057 Hartrees.
 IExCor=  402 DFT=T Ex+Corr=B3LYP ExCW=0 ScaHFX=  0.200000
 ScaDFX=  0.800000  0.720000  1.000000  0.810000 ScalE2=  1.000000  1.000000
 IRadAn=      0 IRanWt=     -1 IRanGd=            0 ICorTp=0
 NAtoms=    2 NActive=    2 NUniq=    1 SFac= 3.00D+00 NAtFMM=   80 NAOKFM=F Big=F
 Leave Link  301 at Sat Jun 22 13:18:35 2024, MaxMem=   13107200 cpu:       0.0
 (Enter /programs/64bit/g09/g09-gfortran/bin/l302.exe)
 NPDir=0 NMtPBC=     1 NCelOv=     1 NCel=       1 NClECP=     1 NCelD=      1
         NCelK=      1 NCelE2=     1 NClLst=     1 CellRange=     0.0.
 One-electron integrals computed using PRISM.
 One-electron integral symmetry used in STVInt
 NBasis=    10 RedAO= T  NBF=     3     0     1     1     0     3     1     1
 NBsUse=    10 1.00D-06 NBFU=     3     0     1     1     0     3     1     1
 Precomputing XC quadrature grid using
 IXCGrd= 2 IRadAn=           0 IRanWt=          -1 IRanGd=           0 AccXCQ= 1.00D-10.
 NRdTot=     122 NPtTot=       15460 NUsed=       16353 NTot=       16385
 NSgBfM=    10    10    10    10    10 NAtAll=     2     2.
 Leave Link  302 at Sat Jun 22 13:18:35 2024, MaxMem=   13107200 cpu:       0.0
 (Enter /programs/64bit/g09/g09-gfortran/bin/l303.exe)
 DipDrv:  MaxL=1.
 Leave Link  303 at Sat Jun 22 13:18:35 2024, MaxMem=   13107200 cpu:       0.0
 (Enter /programs/64bit/g09/g09-gfortran/bin/l401.exe)
 Initial guess read from the read-write file.
 B after Tr=     0.000000    0.000000    0.000000
         Rot=    1.000000    0.000000    0.000000    0.000000 Ang=   0.00 deg.
 Guess basis will be translated and rotated to current coordinates.
 Initial guess orbital symmetries:
       Occupied  (SGG)
       Virtual   (SGU) (SGG) (SGU) (SGG) (PIU) (PIU) (PIG) (PIG)
                 (SGU)
 The electronic state of the initial guess is 1-SGG.
 Generating alternative initial guess.
 Harris functional with IExCor=  402 diagonalized for initial guess.
 ExpMin= 1.61D-01 ExpMax= 1.87D+01 ExpMxC= 1.87D+01 IAcc=1 IRadAn=         1 AccDes= 0.00D+00
 HarFok:  IExCor=  402 AccDes= 0.00D+00 IRadAn=         1 IDoV= 1
 ScaDFX=  1.000000  1.000000  1.000000  1.000000
 FoFCou: FMM=F IPFlag=           0 FMFlag=      100000 FMFlg1=           0
         NFxFlg=           0 DoJE=T BraDBF=F KetDBF=T FulRan=T
         Omega=  0.000000  0.000000  1.000000  0.000000  0.000000 ICntrl=     500 IOpCl=  0
         NMat0=    1 NMatS0=    1 NMatT0=    0 NMatD0=    1 NMtDS0=    0 NMtDT0=    0
         I1Cent=           4 NGrid=           0.
 Petite list used in FoFCou.
 Harris En= -1.05960629950506    
 Leave Link  401 at Sat Jun 22 13:18:35 2024, MaxMem=   13107200 cpu:       0.1
 (Enter /programs/64bit/g09/g09-gfortran/bin/l502.exe)
 Closed shell SCF:
 Requested convergence on RMS density matrix=1.00D-08 within 128 cycles.
 Requested convergence on MAX density matrix=1.00D-06.
 Requested convergence on             energy=1.00D-06.
 No special actions if energy rises.
 Using DIIS extrapolation, IDIIS=  1040.
 Integral symmetry usage will be decided dynamically.
        16322 words used for storage of precomputed grid.
 Keep R1 ints in memory in canonical form, NReq=895019.
 IEnd=       36115 IEndB=       36115 NGot=    13107200 MDV=    13086620
 LenX=    13086620 LenY=    13085738
 Symmetry not used in FoFDir.
 MinBra= 0 MaxBra= 1 Meth= 1.
 IRaf=       0 NMat=   1 IRICut=       1 DoRegI=T DoRafI=F ISym2E= 0 JSym2E=0.
 Integral accuracy reduced to 1.0D-05 until final iterations.

 Cycle   1  Pass 0  IDiag  1:
 E= -1.06092256927078    
 DIIS: error= 1.57D-02 at cycle   1 NSaved=   1.
 NSaved= 1 IEnMin= 1 EnMin= -1.06092256927078     IErMin= 1 ErrMin= 1.57D-02
 ErrMax= 1.57D-02 EMaxC= 1.00D-01 BMatC= 1.11D-03 BMatP= 1.11D-03
 IDIUse=3 WtCom= 8.43D-01 WtEn= 1.57D-01
 Coeff-Com:  0.100D+01
 Coeff-En:   0.100D+01
 Coeff:      0.100D+01
 Recover alternate guess density for next cycle.
 RMSDP=2.08D-03 MaxDP=7.16D-03              OVMax= 0.00D+00

 Cycle   2  Pass 0  IDiag  1:
 E= -1.06225618286734     Delta-E=       -0.001333613597 Rises=F Damp=F
 DIIS: error= 7.80D-03 at cycle   2 NSaved=   2.
 NSaved= 2 IEnMin= 2 EnMin= -1.06225618286734     IErMin= 2 ErrMin= 7.80D-03
 ErrMax= 7.80D-03 EMaxC= 1.00D-01 BMatC= 2.58D-04 BMatP= 1.11D-03
 IDIUse=3 WtCom= 9.22D-01 WtEn= 7.80D-02
 Coeff-Com: -0.904D+00 0.190D+01
 Coeff-En:   0.000D+00 0.100D+01
 Coeff:     -0.834D+00 0.183D+01
 Gap=     0.253 Goal=   None    Shift=    0.000
 RMSDP=2.07D-03 MaxDP=7.26D-03 DE=-1.33D-03 OVMax= 2.67D-02

 Cycle   3  Pass 0  IDiag  1:
 E= -1.06267862060659     Delta-E=       -0.000422437739 Rises=F Damp=F
 DIIS: error= 5.81D-05 at cycle   3 NSaved=   3.
 NSaved= 3 IEnMin= 3 EnMin= -1.06267862060659     IErMin= 3 ErrMin= 5.81D-05
 ErrMax= 5.81D-05 EMaxC= 1.00D-01 BMatC= 1.36D-08 BMatP= 2.58D-04
 IDIUse=1 WtCom= 1.00D+00 WtEn= 0.00D+00
 Coeff-Com:  0.318D-01-0.632D-01 0.103D+01
 Coeff:      0.318D-01-0.632D-01 0.103D+01
 Gap=     0.243 Goal=   None    Shift=    0.000
 RMSDP=5.29D-06 MaxDP=1.53D-05 DE=-4.22D-04 OVMax= 3.33D-06

 Initial convergence to 1.0D-05 achieved.  Increase integral accuracy.
 Cycle   4  Pass 1  IDiag  1:
 E= -1.06267879936664     Delta-E=       -0.000000178760 Rises=F Damp=F
 DIIS: error= 6.83D-07 at cycle   1 NSaved=   1.
 NSaved= 1 IEnMin= 1 EnMin= -1.06267879936664     IErMin= 1 ErrMin= 6.83D-07
 ErrMax= 6.83D-07 EMaxC= 1.00D-01 BMatC= 1.88D-12 BMatP= 1.88D-12
 IDIUse=1 WtCom= 1.00D+00 WtEn= 0.00D+00
 Coeff-Com:  0.100D+01
 Coeff:      0.100D+01
 Gap=     0.243 Goal=   None    Shift=    0.000
 RMSDP=5.29D-06 MaxDP=1.53D-05 DE=-1.79D-07 OVMax= 1.20D-06

 Cycle   5  Pass 1  IDiag  1:
 E= -1.06267879936982     Delta-E=       -0.000000000003 Rises=F Damp=F
 DIIS: error= 2.50D-08 at cycle   2 NSaved=   2.
 NSaved= 2 IEnMin= 2 EnMin= -1.06267879936982     IErMin= 2 ErrMin= 2.50D-08
 ErrMax= 2.50D-08 EMaxC= 1.00D-01 BMatC= 4.77D-15 BMatP= 1.88D-12
 IDIUse=1 WtCom= 1.00D+00 WtEn= 0.00D+00
 Coeff-Com:  0.369D-01 0.963D+00
 Coeff:      0.369D-01 0.963D+00
 Gap=     0.243 Goal=   None    Shift=    0.000
 RMSDP=6.91D-09 MaxDP=2.37D-08 DE=-3.18D-12 OVMax= 4.18D-08

 SCF Done:  E(RB3LYP) =  -1.06267879937     A.U. after    5 cycles
             Convg  =    0.6907D-08             -V/T =  2.2933
 KE= 8.216737481007D-01 PE=-2.661546582802D+00 EE= 4.244092296049D-01
 Leave Link  502 at Sat Jun 22 13:18:35 2024, MaxMem=   13107200 cpu:       0.1
 (Enter /programs/64bit/g09/g09-gfortran/bin/l108.exe)
 Variable Step   Value    
 -------- ---- -----------
     1       4    3.307021
 Leave Link  108 at Sat Jun 22 13:18:35 2024, MaxMem=   13107200 cpu:       0.0
 (Enter /programs/64bit/g09/g09-gfortran/bin/l202.exe)
 ---------------------------------------------------------------------------------------------------
                            Z-MATRIX (ANGSTROMS AND DEGREES)
   CD    Cent   Atom    N1       Length/X        N2       Alpha/Y        N3        Beta/Z          J
 ---------------------------------------------------------------------------------------------------
      1      1  H 
      2      2  H        1   1.750000(     1)
 ---------------------------------------------------------------------------------------------------
                         Z-Matrix orientation:                         
 ---------------------------------------------------------------------
 Center     Atomic      Atomic             Coordinates (Angstroms)
 Number     Number       Type             X           Y           Z
 ---------------------------------------------------------------------
      1          1           0        0.000000    0.000000    0.000000
      2          1           0        0.000000    0.000000    1.750000
 ---------------------------------------------------------------------
 Stoichiometry    H2
 Framework group  D*H[C*(H.H)]
 Deg. of freedom     1
 Full point group                 D*H     NOp   8
 Largest Abelian subgroup         D2H     NOp   8
 Largest concise Abelian subgroup C2      NOp   2
                         Standard orientation:                         
 ---------------------------------------------------------------------
 Center     Atomic      Atomic             Coordinates (Angstroms)
 Number     Number       Type             X           Y           Z
 ---------------------------------------------------------------------
      1          1           0        0.000000    0.000000    0.875000
      2          1           0        0.000000    0.000000   -0.875000
 ---------------------------------------------------------------------
 Rotational constants (GHZ):      0.0000000    327.4808818    327.4808818
 Leave Link  202 at Sat Jun 22 13:18:35 2024, MaxMem=   13107200 cpu:       0.0
 (Enter /programs/64bit/g09/g09-gfortran/bin/l301.exe)
 Standard basis: 6-31+G(d,p) (6D, 7F)
 Ernie: Thresh=  0.10000D-02 Tol=  0.10000D-05 Strict=F.
 There are     3 symmetry adapted basis functions of AG  symmetry.
 There are     0 symmetry adapted basis functions of B1G symmetry.
 There are     1 symmetry adapted basis functions of B2G symmetry.
 There are     1 symmetry adapted basis functions of B3G symmetry.
 There are     0 symmetry adapted basis functions of AU  symmetry.
 There are     3 symmetry adapted basis functions of B1U symmetry.
 There are     1 symmetry adapted basis functions of B2U symmetry.
 There are     1 symmetry adapted basis functions of B3U symmetry.
 Integral buffers will be    131072 words long.
 Raffenetti 2 integral format.
 Two-electron integral symmetry is turned on.
    10 basis functions,    14 primitive gaussians,    10 cartesian basis functions
     1 alpha electrons        1 beta electrons
       nuclear repulsion energy         0.3023869763 Hartrees.
 IExCor=  402 DFT=T Ex+Corr=B3LYP ExCW=0 ScaHFX=  0.200000
 ScaDFX=  0.800000  0.720000  1.000000  0.810000 ScalE2=  1.000000  1.000000
 IRadAn=      0 IRanWt=     -1 IRanGd=            0 ICorTp=0
 NAtoms=    2 NActive=    2 NUniq=    1 SFac= 3.00D+00 NAtFMM=   80 NAOKFM=F Big=F
 Leave Link  301 at Sat Jun 22 13:18:35 2024, MaxMem=   13107200 cpu:       0.0
 (Enter /programs/64bit/g09/g09-gfortran/bin/l302.exe)
 NPDir=0 NMtPBC=     1 NCelOv=     1 NCel=       1 NClECP=     1 NCelD=      1
         NCelK=      1 NCelE2=     1 NClLst=     1 CellRange=     0.0.
 One-electron integrals computed using PRISM.
 One-electron integral symmetry used in STVInt
 NBasis=    10 RedAO= T  NBF=     3     0     1     1     0     3     1     1
 NBsUse=    10 1.00D-06 NBFU=     3     0     1     1     0     3     1     1
 Precomputing XC quadrature grid using
 IXCGrd= 2 IRadAn=           0 IRanWt=          -1 IRanGd=           0 AccXCQ= 1.00D-10.
 NRdTot=     122 NPtTot=       15460 NUsed=       16353 NTot=       16385
 NSgBfM=    10    10    10    10    10 NAtAll=     2     2.
 Leave Link  302 at Sat Jun 22 13:18:36 2024, MaxMem=   13107200 cpu:       0.1
 (Enter /programs/64bit/g09/g09-gfortran/bin/l303.exe)
 DipDrv:  MaxL=1.
 Leave Link  303 at Sat Jun 22 13:18:36 2024, MaxMem=   13107200 cpu:       0.0
 (Enter /programs/64bit/g09/g09-gfortran/bin/l401.exe)
 Initial guess read from the read-write file.
 B after Tr=     0.000000    0.000000    0.000000
         Rot=    1.000000    0.000000    0.000000    0.000000 Ang=   0.00 deg.
 Guess basis will be translated and rotated to current coordinates.
 Initial guess orbital symmetries:
       Occupied  (SGG)
       Virtual   (SGU) (SGU) (SGG) (SGG) (PIU) (PIU) (PIG) (PIG)
                 (SGU)
 The electronic state of the initial guess is 1-SGG.
 Generating alternative initial guess.
 Harris functional with IExCor=  402 diagonalized for initial guess.
 ExpMin= 1.61D-01 ExpMax= 1.87D+01 ExpMxC= 1.87D+01 IAcc=1 IRadAn=         1 AccDes= 0.00D+00
 HarFok:  IExCor=  402 AccDes= 0.00D+00 IRadAn=         1 IDoV= 1
 ScaDFX=  1.000000  1.000000  1.000000  1.000000
 FoFCou: FMM=F IPFlag=           0 FMFlag=      100000 FMFlg1=           0
         NFxFlg=           0 DoJE=T BraDBF=F KetDBF=T FulRan=T
         Omega=  0.000000  0.000000  1.000000  0.000000  0.000000 ICntrl=     500 IOpCl=  0
         NMat0=    1 NMatS0=    1 NMatT0=    0 NMatD0=    1 NMtDS0=    0 NMtDT0=    0
         I1Cent=           4 NGrid=           0.
 Petite list used in FoFCou.
 Harris En= -1.02503563597108    
 Leave Link  401 at Sat Jun 22 13:18:36 2024, MaxMem=   13107200 cpu:       0.0
 (Enter /programs/64bit/g09/g09-gfortran/bin/l502.exe)
 Closed shell SCF:
 Requested convergence on RMS density matrix=1.00D-08 within 128 cycles.
 Requested convergence on MAX density matrix=1.00D-06.
 Requested convergence on             energy=1.00D-06.
 No special actions if energy rises.
 Using DIIS extrapolation, IDIIS=  1040.
 Integral symmetry usage will be decided dynamically.
        16322 words used for storage of precomputed grid.
 Keep R1 ints in memory in canonical form, NReq=895019.
 IEnd=       36115 IEndB=       36115 NGot=    13107200 MDV=    13086620
 LenX=    13086620 LenY=    13085738
 Symmetry not used in FoFDir.
 MinBra= 0 MaxBra= 1 Meth= 1.
 IRaf=       0 NMat=   1 IRICut=       1 DoRegI=T DoRafI=F ISym2E= 0 JSym2E=0.
 Integral accuracy reduced to 1.0D-05 until final iterations.

 Cycle   1  Pass 0  IDiag  1:
 E= -1.02502791706368    
 DIIS: error= 1.06D-02 at cycle   1 NSaved=   1.
 NSaved= 1 IEnMin= 1 EnMin= -1.02502791706368     IErMin= 1 ErrMin= 1.06D-02
 ErrMax= 1.06D-02 EMaxC= 1.00D-01 BMatC= 5.63D-04 BMatP= 5.63D-04
 IDIUse=3 WtCom= 8.94D-01 WtEn= 1.06D-01
 Coeff-Com:  0.100D+01
 Coeff-En:   0.100D+01
 Coeff:      0.100D+01
 Recover alternate guess density for next cycle.
 RMSDP=1.18D-03 MaxDP=4.09D-03              OVMax= 0.00D+00

 Cycle   2  Pass 0  IDiag  1:
 E= -1.02558736706432     Delta-E=       -0.000559450001 Rises=F Damp=F
 DIIS: error= 6.24D-03 at cycle   2 NSaved=   2.
 NSaved= 2 IEnMin= 2 EnMin= -1.02558736706432     IErMin= 2 ErrMin= 6.24D-03
 ErrMax= 6.24D-03 EMaxC= 1.00D-01 BMatC= 1.67D-04 BMatP= 5.63D-04
 IDIUse=3 WtCom= 9.38D-01 WtEn= 6.24D-02
 Coeff-Com: -0.102D+01 0.202D+01
 Coeff-En:   0.000D+00 0.100D+01
 Coeff:     -0.956D+00 0.196D+01
 Gap=     0.191 Goal=   None    Shift=    0.000
 RMSDP=1.74D-03 MaxDP=6.25D-03 DE=-5.59D-04 OVMax= 1.76D-02

 Cycle   3  Pass 0  IDiag  1:
 E= -1.02585845324396     Delta-E=       -0.000271086180 Rises=F Damp=F
 DIIS: error= 6.87D-05 at cycle   3 NSaved=   3.
 NSaved= 3 IEnMin= 3 EnMin= -1.02585845324396     IErMin= 3 ErrMin= 6.87D-05
 ErrMax= 6.87D-05 EMaxC= 1.00D-01 BMatC= 2.87D-08 BMatP= 1.67D-04
 IDIUse=1 WtCom= 1.00D+00 WtEn= 0.00D+00
 Coeff-Com:  0.220D-01-0.292D-01 0.101D+01
 Coeff:      0.220D-01-0.292D-01 0.101D+01
 Gap=     0.186 Goal=   None    Shift=    0.000
 RMSDP=1.38D-05 MaxDP=4.51D-05 DE=-2.71D-04 OVMax= 6.84D-05

 Cycle   4  Pass 0  IDiag  1:
 E= -1.02585848492940     Delta-E=       -0.000000031685 Rises=F Damp=F
 DIIS: error= 3.11D-07 at cycle   4 NSaved=   4.
 NSaved= 4 IEnMin= 4 EnMin= -1.02585848492940     IErMin= 4 ErrMin= 3.11D-07
 ErrMax= 3.11D-07 EMaxC= 1.00D-01 BMatC= 5.61D-13 BMatP= 2.87D-08
 IDIUse=1 WtCom= 1.00D+00 WtEn= 0.00D+00
 Coeff-Com: -0.103D-04 0.453D-04-0.277D-02 0.100D+01
 Coeff:     -0.103D-04 0.453D-04-0.277D-02 0.100D+01
 Gap=     0.186 Goal=   None    Shift=    0.000
 RMSDP=8.49D-08 MaxDP=3.01D-07 DE=-3.17D-08 OVMax= 4.88D-07

 Initial convergence to 1.0D-05 achieved.  Increase integral accuracy.
 Cycle   5  Pass 1  IDiag  1:
 E= -1.02585772967257     Delta-E=        0.000000755257 Rises=F Damp=F
 DIIS: error= 7.03D-07 at cycle   1 NSaved=   1.
 NSaved= 1 IEnMin= 1 EnMin= -1.02585772967257     IErMin= 1 ErrMin= 7.03D-07
 ErrMax= 7.03D-07 EMaxC= 1.00D-01 BMatC= 3.25D-12 BMatP= 3.25D-12
 IDIUse=1 WtCom= 1.00D+00 WtEn= 0.00D+00
 Coeff-Com:  0.100D+01
 Coeff:      0.100D+01
 Gap=     0.186 Goal=   None    Shift=    0.000
 RMSDP=8.49D-08 MaxDP=3.01D-07 DE= 7.55D-07 OVMax= 1.40D-06

 Cycle   6  Pass 1  IDiag  1:
 E= -1.02585772967763     Delta-E=       -0.000000000005 Rises=F Damp=F
 DIIS: error= 2.36D-08 at cycle   2 NSaved=   2.
 NSaved= 2 IEnMin= 2 EnMin= -1.02585772967763     IErMin= 2 ErrMin= 2.36D-08
 ErrMax= 2.36D-08 EMaxC= 1.00D-01 BMatC= 3.74D-15 BMatP= 3.25D-12
 IDIUse=1 WtCom= 1.00D+00 WtEn= 0.00D+00
 Coeff-Com:  0.163D-02 0.998D+00
 Coeff:      0.163D-02 0.998D+00
 Gap=     0.186 Goal=   None    Shift=    0.000
 RMSDP=5.52D-09 MaxDP=1.87D-08 DE=-5.06D-12 OVMax= 2.89D-08

 SCF Done:  E(RB3LYP) =  -1.02585772968     A.U. after    6 cycles
             Convg  =    0.5516D-08             -V/T =  2.2771
 KE= 8.032877068427D-01 PE=-2.517035715993D+00 EE= 3.855033031353D-01
 Leave Link  502 at Sat Jun 22 13:18:36 2024, MaxMem=   13107200 cpu:       0.1
 (Enter /programs/64bit/g09/g09-gfortran/bin/l108.exe)
 Scan completed.

 Summary of the potential surface scan:
   N       d          SCF    
 ----  ---------  -----------
    1     0.7500     -1.17850
    2     1.0000     -1.15100
    3     1.2500     -1.10597
    4     1.5000     -1.06268
    5     1.7500     -1.02586
 ----  ---------  -----------
  
 Leave Link  108 at Sat Jun 22 13:18:36 2024, MaxMem=   13107200 cpu:       0.0
 (Enter /programs/64bit/g09/g09-gfortran/bin/l9999.exe)
 1\1\GINC-MOLMOD\Scan\RB3LYP\6-31+G(d,p)\H2\OSPITE\22-Jun-2024\1\\#p B3
 LYP/6-31+g(d,p) scan\\Hydrogen Molecule\\0,1\H\H,1,d\\d=0.75,s,4,0.25\
 \Version=EM64L-G09RevA.02\State=1-SGG\HF=-1.1785046,-1.1509989,-1.1059
 659,-1.0626788,-1.0258577\RMSD=2.116e-10,2.390e-10,6.765e-09,6.907e-09
 ,5.516e-09\PG=D*H [C*(H1.H1)]\\@


 The impersonal hand of government can
 never replace the helping hand of a neighbor.
                        -- Hubert H. Humphrey
 Job cpu time:  0 days  0 hours  0 minutes  2.2 seconds.
 File lengths (MBytes):  RWF=      5 Int=      0 D2E=      0 Chk=      1 Scr=      1
 Normal termination of Gaussian 09 at Sat Jun 22 13:18:36 2024.
