
 Primary working directories    : /data/scratch
 Secondary working directories  : /data/scratch
 Wavefunction directory         : /home/ospite/wfu/
 Main file repository           : /data/scratch/

 ARCHNAME  : Linux/x86_64
 FC        : /usr/bin/gfortran
 FCVERSION : 4.8.5
 BLASLIB   : 
 id        : polimi

 Nodes     nprocs
 molmod       1

 Using default tuning parameters: mindgm=1; mindgv=20; mindgc=4; mindgr=1; noblas=0; mincuda=1000; minvec=7
 default implementation of scratch files=df  

 memory, 400, m
 
 basis=6-31+G(d,p)
 
 geometry={H; H, H, r}
 
 i=0
 do r=0.5, 4.0, 0.15
   geometry={H; H, H, r1}
   r1=r
   rks,b3lyp
   {optg;
    inactive,r1;}
   values(i)=energy
   i=i+1
 enddo
 
 show, values
 
 

 Variables initialized (661), CPU time= 0.00 sec
 Commands  initialized (458), CPU time= 0.01 sec, 486 directives.
 Default parameters read. Elapsed time= 0.02 sec

 Checking input...
 Passed
1


                                         ***  PROGRAM SYSTEM MOLPRO  ***
                         Copyright, University College Cardiff Consultants Limited, 2008

                                    Version 2010.1 linked Mar  6 2018 16:01:50


 **********************************************************************************************************************************
 LABEL *                                                                                 
 Linux-3.10.0-1160.108.1.el7.x86_64/molmod(x86_64) 64 bit serial version                 DATE: 22-Jun-24          TIME: 17:23:31  
 **********************************************************************************************************************************

 SHA1:             d90fb18d49a3be29a79769f900c595ef3b8176e2
 **********************************************************************************************************************************

 Variable memory set to  400000000 words,  buffer space   230000 words

 SETTING BASIS          =    6-31+G(D,P)
 SETTING I              =         0.00000000                                  

 DO R                   =         0.50000000   
 SETTING R1             =         0.50000000                                  


 Recomputing integrals since basis changed


 Using spherical harmonics

 Library entry H      S 6-31G                selected for orbital group  1
 Library entry H      P 6-31G**              selected for orbital group  1

1PROGRAM * SEWARD (Integral evaluation for generally contracted gaussian basis sets)     Author: Roland Lindh, 1990

 Geometry written to block  1 of record 700

 Orientation using atomic masses  
 Molecule type: Linear
 Symmetry elements: X,Y,Z
 Rotational constants:   14324.1951711  14324.1951711      0.0000000 GHz  (calculated with average atomic masses)

 Point group  D2h 



 ATOMIC COORDINATES

 NR  ATOM    CHARGE       X              Y              Z

   1  H       1.00    0.000000000    0.000000000   -0.250000000
   2  H       1.00    0.000000000    0.000000000    0.250000000

 Bond lengths in Bohr (Angstrom)

 1-2  0.500000000
     ( 0.264588604)

 NUCLEAR CHARGE:                    2
 NUMBER OF PRIMITIVE AOS:          14
 NUMBER OF SYMMETRY AOS:           14
 NUMBER OF CONTRACTIONS:           10   (   3Ag  +   1B3u +   1B2u +   0B1g +   3B1u +   1B2g +   1B3g +   0Au  )
 NUMBER OF CORE ORBITALS:           0   (   0Ag  +   0B3u +   0B2u +   0B1g +   0B1u +   0B2g +   0B3g +   0Au  )
 NUMBER OF VALENCE ORBITALS:        2   (   1Ag  +   0B3u +   0B2u +   0B1g +   1B1u +   0B2g +   0B3g +   0Au  )


 NUCLEAR REPULSION ENERGY    2.00000000


 Eigenvalues of metric

         1 0.202E+00 0.769E+00 0.327E+01
         2 0.187E+01
         3 0.187E+01
         5 0.595E-02 0.181E-01 0.173E+01
         6 0.128E+00
         7 0.128E+00


 Contracted 2-electron integrals neglected if value below      1.0D-11
 AO integral compression algorithm  1   Integral accuracy      1.0D-11

     0.262 MB (compressed) written to integral file (100.0%)


 NUMBER OF SORTED TWO-ELECTRON INTEGRALS:        373.     BUFFER LENGTH:  32768
 NUMBER OF SEGMENTS:   1  SEGMENT LENGTH:        373      RECORD LENGTH: 524288

 Memory used in sort:       0.56 MW

 SORT1 READ         776. AND WROTE         373. INTEGRALS IN      1 RECORDS. CPU TIME:     0.00 SEC, REAL TIME:     0.01 SEC
 SORT2 READ         373. AND WROTE         373. INTEGRALS IN      1 RECORDS. CPU TIME:     0.00 SEC, REAL TIME:     0.00 SEC

 FILE SIZES:   FILE 1:     2.8 MBYTE,  FILE 4:     4.2 MBYTE,   TOTAL:      7.0 MBYTE

 OPERATOR DM      FOR CENTER  0  COORDINATES:    0.000000    0.000000    0.000000


 **********************************************************************************************************************************
 DATASETS  * FILE   NREC   LENGTH (MB)   RECORD NAMES
              1      19        2.54       500      610      700      900      950      970     1000      129      960     1100   
                                          VAR    BASINP    GEOM    SYMINP    ZMAT    AOBASIS   BASIS     P2S    ABASIS      S 
                                         1400     1410     1200     1210     1080     1600     1650     1300     1700   
                                           T        V       H0       H01     AOSYM     SMH    MOLCAS    ERIS     OPER   

 PROGRAMS   *        TOTAL       INT
 CPU TIMES  *         0.12      0.06
 REAL TIME  *         0.20 SEC
 DISK USED  *         7.48 MB      
 **********************************************************************************************************************************

 Density functional group B3LYP=B88+DIRAC+LYP+VWN5
 Functional: B88(Automatically generated B88)                                  Gradient terms: 1
 Functional: DIRAC(Automatically generated DIRAC)                              Gradient terms: 0
 Functional: LYP(Lee-Yang-Parr gradient-corrected correlation energy (1988))   Gradient terms: 1
 Functional: VWN5(Automatically generated VWN5)                                Gradient terms: 0
 Use grid at  1800.2


 Exact exchange will be calculated, factor:  0.2000

 Functional: B88                       Factor:  0.7200
 Functional: DIRAC                     Factor:  0.0800
 Functional: LYP                       Factor:  0.8100
 Functional: VWN5                      Factor:  0.1900

 Generated new metagrid on record  1800.2 with target accuracy 1.0D-06 and 711 points in CPU time    0.0
 Computed new grid on record 1800.1 in CPU time    0.0
   11702 words reserved for DFT integration

 PROGRAM * RKS-SCF (Restricted closed shell Kohn-Sham)     Authors: W. Meyer, H.-J. Werner, P.J. Knowles, 1993

 NUMBER OF ELECTRONS:       1+    1-
 CONVERGENCE THRESHOLDS:    1.00E-05 (Density)    1.00E-06 (Energy)
 MAX. NUMBER OF ITERATIONS:       60
 INTERPOLATION TYPE:            DIIS
 INTERPOLATION STEPS:              2 (START)      1 (STEP)
 LEVEL SHIFTS:                  0.00 (CLOSED)  0.00 (OPEN) 



 Use fine grid record 1800.2 for energy threshold 1.0D-06
 Orbital guess generated from atomic densities. Full valence occupancy:    1   0   0   0   1   0   0   0


 Molecular orbital dump at record        2100.2

 Initial alpha occupancy:   1   0   0   0   0   0   0
 Initial beta  occupancy:   1   0   0   0   0   0   0
 Wave function symmetry:    1

 ITERATION    DDIFF          GRAD             ENERGY        2-EL.EN.            DIPOLE MOMENTS         DIIS
    1      0.000D+00      0.000D+00        -0.49297273      3.375551    0.00000    0.00000    0.00000    0
    2      0.000D+00      0.431D-01        -0.50315558      3.114098    0.00000    0.00000    0.00000    1
    3      0.390D-01      0.959D-02        -0.50368638      3.162140    0.00000    0.00000    0.00000    2
    4      0.712D-02      0.651D-04        -0.50368640      3.161846    0.00000    0.00000    0.00000    3
    5      0.403D-04      0.362D-06        -0.50368640      3.161848    0.00000    0.00000    0.00000    3
    6      0.306D-06      0.114D-08        -0.50368640      3.161848    0.00000    0.00000    0.00000    0

 Final occupancy:   1   0   0   0   0   0   0

 !RKS STATE 1.1 Energy                 -0.503686397043
 Nuclear energy                         2.00000000
 One-electron energy                   -3.34670159
 Two-electron energy                    1.58092382
 SCF exchange energy                   -0.87829101     Factor=0.2000
 Density functional                    -0.73790862     B88=-0.86599054 DIRAC=-0.75154548 LYP=-0.04201647 VWN5=-0.10651817
 Virial quotient                       -0.26632724
 !RKS STATE 1.1 Dipole moment           0.00000000     0.00000000     0.00000000
 Dipole moment /Debye                   0.00000000     0.00000000     0.00000000

 Orbital energies:

         1.1          2.1          3.1
     -0.565069     0.411721     3.028832

         1.2
      1.778785

         1.3
      1.778785

         1.5          2.5
      0.217071     1.784641

         1.6
      3.142445

         1.7
      3.142445


 **********************************************************************************************************************************
 DATASETS  * FILE   NREC   LENGTH (MB)   RECORD NAMES
              1      20        2.57       500      610      700      900      950      970     1000      129      960     1100   
                                          VAR    BASINP    GEOM    SYMINP    ZMAT    AOBASIS   BASIS     P2S    ABASIS      S 
                                         1400     1410     1200     1210     1080     1600     1650     1300     1700     1800   
                                           T        V       H0       H01     AOSYM     SMH    MOLCAS    ERIS     OPER     GRID   

              2       4        0.26       700     1000     1800     2100   
                                         GEOM     BASIS    GRID      RKS  

 PROGRAMS   *        TOTAL       RKS       INT
 CPU TIMES  *         0.16      0.04      0.06
 REAL TIME  *         0.25 SEC
 DISK USED  *         7.48 MB      
 **********************************************************************************************************************************


 PROGRAM * OPT (Geometry optimization)     Authors: F. Eckert and H.-J. Werner


 BFGS update of hessian

 *** Long output written to logfile /home/ospite/QM/lab3/MOLPRO/scan.log ***


 Geometry optimization using default procedure for command RKS-SCF

 Inactive variables:    R1

 Active variables: 

 Geometry written to block  1 of record 701

 Making model hessian for cartesian coordinates

 Quadratic Steepest Descent - Minimum Search

 Optimization point  1

 Variable                      Last           Current        Next           Gradient       Hessian
 E(RKS-SCF000) / Hartree     0.00000000    -0.50368640     0.00000000
 HX1 / BOHR                  0.00000000     0.00000000     0.00000000     0.00000000     0.00000000
 HY1 / BOHR                  0.00000000     0.00000000     0.00000000     0.00000000     0.00000000
 HZ1 / BOHR                  0.00000000    -0.25000000    -0.56819820     3.15908120     0.00000000
 HX2 / BOHR                  0.00000000     0.00000000     0.00000000     0.00000000     0.00000000
 HY2 / BOHR                  0.00000000     0.00000000     0.00000000     0.00000000     0.00000000
 HZ2 / BOHR                  0.00000000     0.25000000     0.56819820    -3.15908120     4.33681186
 Convergence:                0.00000000  (line search)     0.45000021     4.46761548  (total)

 Optimization point  2

 Variable                      Last           Current        Next           Gradient       Hessian
 E(RKS-SCF000) / Hartree    -0.50368640    -1.15287704     0.00000000
 HX1 / BOHR                  0.00000000     0.00000000     0.00000000     0.00000000     0.00000000
 HY1 / BOHR                  0.00000000     0.00000000     0.00000000     0.00000000     0.00000000
 HZ1 / BOHR                 -0.25000000    -0.56819820    -0.58586537     0.16617376     0.00000000
 HX2 / BOHR                  0.00000000     0.00000000     0.00000000     0.00000000     0.00000000
 HY2 / BOHR                  0.00000000     0.00000000     0.00000000     0.00000000     0.00000000
 HZ2 / BOHR                  0.25000000     0.56819820     0.58586537    -0.16617376     1.53072688
 Convergence:                0.00000000  (line search)     0.02498515     0.23500519  (total)

 Optimization point  3

 Variable                      Last           Current        Next           Gradient       Hessian
 E(RKS-SCF000) / Hartree    -1.15287704    -1.15817731     0.00000000
 HX1 / BOHR                  0.00000000     0.00000000     0.00000000     0.00000000     0.00000000
 HY1 / BOHR                  0.00000000     0.00000000     0.00000000     0.00000000     0.00000000
 HZ1 / BOHR                 -0.56819820    -0.58586537    -0.66108432     0.13456711     0.00000000
 HX2 / BOHR                  0.00000000     0.00000000     0.00000000     0.00000000     0.00000000
 HY2 / BOHR                  0.00000000     0.00000000     0.00000000     0.00000000     0.00000000
 HZ2 / BOHR                  0.56819820     0.58586537     0.66108432    -0.13456711     1.41084184
 Convergence:                0.00000000  (line search)     0.10637566     0.19030663  (total)

 Optimization point  4

 Variable                      Last           Current        Next           Gradient       Hessian
 E(RKS-SCF000) / Hartree    -1.15817731    -1.17036598     0.00000000
 HX1 / BOHR                  0.00000000     0.00000000     0.00000000     0.00000000     0.00000000
 HY1 / BOHR                  0.00000000     0.00000000     0.00000000     0.00000000     0.00000000
 HZ1 / BOHR                 -0.58586537    -0.66108432    -0.68849602     0.03594163     0.00000000
 HX2 / BOHR                  0.00000000     0.00000000     0.00000000     0.00000000     0.00000000
 HY2 / BOHR                  0.00000000     0.00000000     0.00000000     0.00000000     0.00000000
 HZ2 / BOHR                  0.58586537     0.66108432     0.68849602    -0.03594163     0.96948486
 Convergence:                0.00000000  (line search)     0.03876600     0.05082914  (total)

 Optimization point  5

 Variable                      Last           Current        Next           Gradient       Hessian
 E(RKS-SCF000) / Hartree    -1.17036598    -1.17162710     0.00000000
 HX1 / BOHR                  0.00000000     0.00000000     0.00000000     0.00000000     0.00000000
 HY1 / BOHR                  0.00000000     0.00000000     0.00000000     0.00000000     0.00000000
 HZ1 / BOHR                 -0.66108432    -0.68849602    -0.70038284     0.01087145     0.00000000
 HX2 / BOHR                  0.00000000     0.00000000     0.00000000     0.00000000     0.00000000
 HY2 / BOHR                  0.00000000     0.00000000     0.00000000     0.00000000     0.00000000
 HZ2 / BOHR                  0.66108432     0.68849602     0.70038284    -0.01087145     0.83613301
 Convergence:                0.00000000  (line search)     0.01681050     0.01537455  (total)

 Optimization point  6

 Variable                      Last           Current        Next           Gradient       Hessian
 E(RKS-SCF000) / Hartree    -1.17162710    -1.17177000     0.00000000
 HX1 / BOHR                  0.00000000     0.00000000     0.00000000     0.00000000     0.00000000
 HY1 / BOHR                  0.00000000     0.00000000     0.00000000     0.00000000     0.00000000
 HZ1 / BOHR                 -0.68849602    -0.70038284    -0.70207213     0.00135274     0.00000000
 HX2 / BOHR                  0.00000000     0.00000000     0.00000000     0.00000000     0.00000000
 HY2 / BOHR                  0.00000000     0.00000000     0.00000000     0.00000000     0.00000000
 HZ2 / BOHR                  0.68849602     0.70038284     0.70207213    -0.00135274     0.78270063
 Convergence:                0.00000000  (line search)     0.00238901     0.00191307  (total)

 Freezing grid

 Optimization point  7

 Variable                      Last           Current        Next           Gradient       Hessian
 E(RKS-SCF000) / Hartree    -1.17177000    -1.17177319     0.00000000
 HX1 / BOHR                  0.00000000     0.00000000     0.00000000     0.00000000     0.00000000
 HY1 / BOHR                  0.00000000     0.00000000     0.00000000     0.00000000     0.00000000
 HZ1 / BOHR                 -0.70038284    -0.70207213    -0.70214877     0.00005871     0.00000000
 HX2 / BOHR                  0.00000000     0.00000000     0.00000000     0.00000000     0.00000000
 HY2 / BOHR                  0.00000000     0.00000000     0.00000000     0.00000000     0.00000000
 HZ2 / BOHR                  0.70038284     0.70207213     0.70214877    -0.00005871     0.77531832
 Convergence:                0.00000000  (line search)     0.00010839     0.00008303  (total)

 END OF GEOMETRY OPTIMIZATION.    TOTAL CPU:         5.8 SEC

 ITER.   ENERGY(OLD)    ENERGY(NEW)      DE          GRADMAX     GRADNORM    GRADRMS     STEPMAX     STEPLEN     STEPRMS
   1    -0.50368640    -1.15287704    -0.64919065  4.46761548  4.46761548  4.46761548  0.45000021  0.45000021  0.31819820
   2    -1.15287704    -1.15817731    -0.00530027  0.23500519  0.23500519  0.23500519  0.02498515  0.02498515  0.01766717
   3    -1.15817731    -1.17036598    -0.01218866  0.19030663  0.19030663  0.19030663  0.10637566  0.10637566  0.07521895
   4    -1.17036598    -1.17162710    -0.00126112  0.05082914  0.05082914  0.05082914  0.03876600  0.03876600  0.02741170
   5    -1.17162710    -1.17177000    -0.00014290  0.01537455  0.01537455  0.01537455  0.01681050  0.01681050  0.01188682
   6    -1.17177000    -1.17177319    -0.00000320  0.00191307  0.00191307  0.00191307  0.00238901  0.00238901  0.00168929
   7    -1.17177319    -1.17177320    -0.00000000  0.00008303  0.00008303  0.00008303  0.00010839  0.00010839  0.00007665

 Geometry written to block  1 of record 701


 **********************************************************************************************************************************
 DATASETS  * FILE   NREC   LENGTH (MB)   RECORD NAMES
              1      21        2.76       500      610      700      900      701      950      970     1000      129      960   
                                          VAR    BASINP    GEOM    SYMINP    GEOM     ZMAT    AOBASIS   BASIS     P2S    ABASIS    
                                         1100     1400     1410     1200     1210     1080     1600     1650     1300     1700   
                                           S        T        V       H0       H01     AOSYM     SMH    MOLCAS    ERIS     OPER   
                                         1800   
                                         GRID   

              2       5        0.29       700     1000     1800     2100      701   
                                         GEOM     BASIS    GRID      RKS     GEOM   

 PROGRAMS   *        TOTAL      OPTG       RKS       INT
 CPU TIMES  *         5.94      5.78      0.04      0.06
 REAL TIME  *         7.52 SEC
 DISK USED  *         7.76 MB      
 **********************************************************************************************************************************
 SETTING VALUES(I)      =        -1.17177320  AU                              
 SETTING I              =         1.00000000                                  

 DO R                   =         0.65000000   
 SETTING R1             =         0.65000000                                  


 Recomputing integrals since geometry changed

1PROGRAM * SEWARD (Integral evaluation for generally contracted gaussian basis sets)     Author: Roland Lindh, 1990

 Geometry written to block  1 of record 700

 Orientation using atomic masses  
 Molecule type: Linear
 Symmetry elements: X,Y,Z
 Rotational constants:    8475.8551308   8475.8551308      0.0000000 GHz  (calculated with average atomic masses)

 Point group  D2h 



 ATOMIC COORDINATES

 NR  ATOM    CHARGE       X              Y              Z

   1  H       1.00    0.000000000    0.000000000   -0.325000000
   2  H       1.00    0.000000000    0.000000000    0.325000000

 Bond lengths in Bohr (Angstrom)

 1-2  0.650000000
     ( 0.343965186)

 NUCLEAR CHARGE:                    2
 NUMBER OF PRIMITIVE AOS:          14
 NUMBER OF SYMMETRY AOS:           14
 NUMBER OF CONTRACTIONS:           10   (   3Ag  +   1B3u +   1B2u +   0B1g +   3B1u +   1B2g +   1B3g +   0Au  )
 NUMBER OF CORE ORBITALS:           0   (   0Ag  +   0B3u +   0B2u +   0B1g +   0B1u +   0B2g +   0B3g +   0Au  )
 NUMBER OF VALENCE ORBITALS:        2   (   1Ag  +   0B3u +   0B2u +   0B1g +   1B1u +   0B2g +   0B3g +   0Au  )


 NUCLEAR REPULSION ENERGY    1.53846154


 Eigenvalues of metric

         1 0.283E+00 0.850E+00 0.324E+01
         2 0.179E+01
         3 0.179E+01
         5 0.878E-02 0.290E-01 0.159E+01
         6 0.207E+00
         7 0.207E+00


 Contracted 2-electron integrals neglected if value below      1.0D-11
 AO integral compression algorithm  1   Integral accuracy      1.0D-11

     0.262 MB (compressed) written to integral file (100.0%)


 NUMBER OF SORTED TWO-ELECTRON INTEGRALS:        373.     BUFFER LENGTH:  32768
 NUMBER OF SEGMENTS:   1  SEGMENT LENGTH:        373      RECORD LENGTH: 524288

 Memory used in sort:       0.56 MW

 SORT1 READ         776. AND WROTE         373. INTEGRALS IN      1 RECORDS. CPU TIME:     0.00 SEC, REAL TIME:     0.00 SEC
 SORT2 READ         373. AND WROTE         373. INTEGRALS IN      1 RECORDS. CPU TIME:     0.00 SEC, REAL TIME:     0.00 SEC

 FILE SIZES:   FILE 1:     3.0 MBYTE,  FILE 4:     4.2 MBYTE,   TOTAL:      7.2 MBYTE

 OPERATOR DM      FOR CENTER  0  COORDINATES:    0.000000    0.000000    0.000000


 **********************************************************************************************************************************
 DATASETS  * FILE   NREC   LENGTH (MB)   RECORD NAMES
              1      20        2.74       500      610      700      900      701      950      970     1000      129      960   
                                          VAR    BASINP    GEOM    SYMINP    GEOM     ZMAT    AOBASIS   BASIS     P2S    ABASIS    
                                         1100     1400     1410     1200     1210     1080     1600     1650     1300     1700   
                                           S        T        V       H0       H01     AOSYM     SMH    MOLCAS    ERIS     OPER   

              2       5        0.29       700     1000     1800     2100      701   
                                         GEOM     BASIS    GRID      RKS     GEOM   

 PROGRAMS   *        TOTAL       INT      OPTG       RKS       INT
 CPU TIMES  *         6.06      0.12      5.78      0.04      0.06
 REAL TIME  *         7.68 SEC
 DISK USED  *         7.76 MB      
 **********************************************************************************************************************************

 Density functional group B3LYP=B88+DIRAC+LYP+VWN5
 Functional: B88(Automatically generated B88)                                  Gradient terms: 1
 Functional: DIRAC(Automatically generated DIRAC)                              Gradient terms: 0
 Functional: LYP(Lee-Yang-Parr gradient-corrected correlation energy (1988))   Gradient terms: 1
 Functional: VWN5(Automatically generated VWN5)                                Gradient terms: 0
 Use grid at  1800.2


 Exact exchange will be calculated, factor:  0.2000

 Functional: B88                       Factor:  0.7200
 Functional: DIRAC                     Factor:  0.0800
 Functional: LYP                       Factor:  0.8100
 Functional: VWN5                      Factor:  0.1900

 Generated new metagrid on record  1800.2 with target accuracy 1.0D-06 and 711 points in CPU time    0.0
 Computed new grid on record 1800.1 in CPU time    0.0
   11702 words reserved for DFT integration

 PROGRAM * RKS-SCF (Restricted closed shell Kohn-Sham)     Authors: W. Meyer, H.-J. Werner, P.J. Knowles, 1993

 NUMBER OF ELECTRONS:       1+    1-
 CONVERGENCE THRESHOLDS:    1.00E-05 (Density)    1.00E-06 (Energy)
 MAX. NUMBER OF ITERATIONS:       60
 INTERPOLATION TYPE:            DIIS
 INTERPOLATION STEPS:              2 (START)      1 (STEP)
 LEVEL SHIFTS:                  0.00 (CLOSED)  0.00 (OPEN) 



 Use fine grid record 1800.2 for energy threshold 1.0D-06
 Molecular orbitals read from record     2100.2  Type=RKS/CANONICAL (state 1.1)

 Molecular orbital dump at record        2100.2

 ITERATION    DDIFF          GRAD             ENERGY        2-EL.EN.            DIPOLE MOMENTS         DIIS
    1      0.000D+00      0.000D+00        -0.79925375      2.604956    0.00000    0.00000    0.00000    0
    2      0.000D+00      0.842D-01        -0.83866286      3.101046    0.00000    0.00000    0.00000    1
    3      0.769D-01      0.193D-01        -0.84081181      3.007880    0.00000    0.00000    0.00000    2
    4      0.143D-01      0.155D-03        -0.84081194      3.007163    0.00000    0.00000    0.00000    3
    5      0.106D-03      0.599D-06        -0.84081194      3.007165    0.00000    0.00000    0.00000    3
    6      0.436D-06      0.639D-08        -0.84081194      3.007165    0.00000    0.00000    0.00000    0

 Final occupancy:   1   0   0   0   0   0   0

 !RKS STATE 1.1 Energy                 -0.840811942107
 Nuclear energy                         1.53846154
 One-electron energy                   -3.17876692
 Two-electron energy                    1.50358230
 SCF exchange energy                   -0.83532350     Factor=0.2000
 Density functional                    -0.70408886     B88=-0.82422181 DIRAC=-0.71505652 LYP=-0.04150573 VWN5=-0.10434207
 Virial quotient                       -0.48928497
 !RKS STATE 1.1 Dipole moment           0.00000000     0.00000000     0.00000000
 Dipole moment /Debye                   0.00000000     0.00000000     0.00000000

 Orbital energies:

         1.1          2.1          3.1
     -0.536702     0.437393     2.963944

         1.2
      1.750099

         1.3
      1.750099

         1.5          2.5
      0.202623     1.617658

         1.6
      3.067011

         1.7
      3.067011


 **********************************************************************************************************************************
 DATASETS  * FILE   NREC   LENGTH (MB)   RECORD NAMES
              1      21        2.77       500      610      700      900      701      950      970     1000      129      960   
                                          VAR    BASINP    GEOM    SYMINP    GEOM     ZMAT    AOBASIS   BASIS     P2S    ABASIS    
                                         1100     1400     1410     1200     1210     1080     1600     1650     1300     1700   
                                           S        T        V       H0       H01     AOSYM     SMH    MOLCAS    ERIS     OPER   
                                         1800   
                                         GRID   

              2       5        0.29       700     1000     1800     2100      701   
                                         GEOM     BASIS    GRID      RKS     GEOM   

 PROGRAMS   *        TOTAL       RKS       INT      OPTG       RKS       INT
 CPU TIMES  *         6.06      0.00      0.12      5.78      0.04      0.06
 REAL TIME  *         7.68 SEC
 DISK USED  *         7.76 MB      
 **********************************************************************************************************************************


 PROGRAM * OPT (Geometry optimization)     Authors: F. Eckert and H.-J. Werner


 BFGS update of hessian

 Geometry optimization using default procedure for command RKS-SCF

 Inactive variables:    R1

 Active variables: 

 Geometry written to block  1 of record 702

 Making model hessian for cartesian coordinates

 Quadratic Steepest Descent - Minimum Search

 Optimization point  1

 Variable                      Last           Current        Next           Gradient       Hessian
 E(RKS-SCF000) / Hartree     0.00000000    -0.84081194     0.00000000
 HX1A / BOHR                 0.00000000     0.00000000     0.00000000     0.00000000     0.00000000
 HY1A / BOHR                 0.00000000     0.00000000     0.00000000     0.00000000     0.00000000
 HZ1A / BOHR                 0.00000000    -0.32500000    -0.64319785     1.55591068     0.00000000
 HX2A / BOHR                 0.00000000     0.00000000     0.00000000     0.00000000     0.00000000
 HY2A / BOHR                 0.00000000     0.00000000     0.00000000     0.00000000     0.00000000
 HZ2A / BOHR                 0.00000000     0.32500000     0.64319785    -1.55591068     3.64967997
 Convergence:                0.00000000  (line search)     0.44999971     2.20038999  (total)

 Optimization point  2

 Variable                      Last           Current        Next           Gradient       Hessian
 E(RKS-SCF000) / Hartree    -0.84081194    -1.16874557     0.00000000
 HX1A / BOHR                 0.00000000     0.00000000     0.00000000     0.00000000     0.00000000
 HY1A / BOHR                 0.00000000     0.00000000     0.00000000     0.00000000     0.00000000
 HZ1A / BOHR                -0.32500000    -0.64319785    -0.65486283     0.05502188     0.00000000
 HX2A / BOHR                 0.00000000     0.00000000     0.00000000     0.00000000     0.00000000
 HY2A / BOHR                 0.00000000     0.00000000     0.00000000     0.00000000     0.00000000
 HZ2A / BOHR                 0.32500000     0.64319785     0.65486283    -0.05502188     1.06430883
 Convergence:                0.00000000  (line search)     0.01649678     0.07781269  (total)

 Optimization point  3

 Variable                      Last           Current        Next           Gradient       Hessian
 E(RKS-SCF000) / Hartree    -1.16874557    -1.16987910     0.00000000
 HX1A / BOHR                 0.00000000     0.00000000     0.00000000     0.00000000     0.00000000
 HY1A / BOHR                 0.00000000     0.00000000     0.00000000     0.00000000     0.00000000
 HZ1A / BOHR                -0.64319785    -0.65486283    -0.69372595     0.04231945     0.00000000
 HX2A / BOHR                 0.00000000     0.00000000     0.00000000     0.00000000     0.00000000
 HY2A / BOHR                 0.00000000     0.00000000     0.00000000     0.00000000     0.00000000
 HZ2A / BOHR                 0.64319785     0.65486283     0.69372595    -0.04231945     1.00175972
 Convergence:                0.00000000  (line search)     0.05496074     0.05984875  (total)

 Optimization point  4

 Variable                      Last           Current        Next           Gradient       Hessian
 E(RKS-SCF000) / Hartree    -1.16987910    -1.17171610     0.00000000
 HX1A / BOHR                 0.00000000     0.00000000     0.00000000     0.00000000     0.00000000
 HY1A / BOHR                 0.00000000     0.00000000     0.00000000     0.00000000     0.00000000
 HZ1A / BOHR                -0.65486283    -0.69372595    -0.70091052     0.00660288     0.00000000
 HX2A / BOHR                 0.00000000     0.00000000     0.00000000     0.00000000     0.00000000
 HY2A / BOHR                 0.00000000     0.00000000     0.00000000     0.00000000     0.00000000
 HZ2A / BOHR                 0.65486283     0.69372595     0.70091052    -0.00660288     0.81230186
 Convergence:                0.00000000  (line search)     0.01016052     0.00933788  (total)

 Optimization point  5

 Variable                      Last           Current        Next           Gradient       Hessian
 E(RKS-SCF000) / Hartree    -1.17171610    -1.17177207     0.00000000
 HX1A / BOHR                 0.00000000     0.00000000     0.00000000     0.00000000     0.00000000
 HY1A / BOHR                 0.00000000     0.00000000     0.00000000     0.00000000     0.00000000
 HZ1A / BOHR                -0.69372595    -0.70091052    -0.70211123     0.00094548     0.00000000
 HX2A / BOHR                 0.00000000     0.00000000     0.00000000     0.00000000     0.00000000
 HY2A / BOHR                 0.00000000     0.00000000     0.00000000     0.00000000     0.00000000
 HZ2A / BOHR                 0.69372595     0.70091052     0.70211123    -0.00094548     0.78038903
 Convergence:                0.00000000  (line search)     0.00169806     0.00133711  (total)

 Freezing grid

 Optimization point  6

 Variable                      Last           Current        Next           Gradient       Hessian
 E(RKS-SCF000) / Hartree    -1.17177207    -1.17177320     0.00000000
 HX1A / BOHR                 0.00000000     0.00000000     0.00000000     0.00000000     0.00000000
 HY1A / BOHR                 0.00000000     0.00000000     0.00000000     0.00000000     0.00000000
 HZ1A / BOHR                -0.70091052    -0.70211123    -0.70214920     0.00002899     0.00000000
 HX2A / BOHR                 0.00000000     0.00000000     0.00000000     0.00000000     0.00000000
 HY2A / BOHR                 0.00000000     0.00000000     0.00000000     0.00000000     0.00000000
 HZ2A / BOHR                 0.70091052     0.70211123     0.70214920    -0.00002899     0.77514807
 Convergence:                0.00000000  (line search)     0.00005370     0.00004099  (total)

 END OF GEOMETRY OPTIMIZATION.    TOTAL CPU:         6.4 SEC

 ITER.   ENERGY(OLD)    ENERGY(NEW)      DE          GRADMAX     GRADNORM    GRADRMS     STEPMAX     STEPLEN     STEPRMS
   1    -0.84081194    -1.16874557    -0.32793363  2.20038999  2.20038999  2.20038999  0.44999971  0.44999971  0.31819785
   2    -1.16874557    -1.16987910    -0.00113353  0.07781269  0.07781269  0.07781269  0.01649678  0.01649678  0.01166498
   3    -1.16987910    -1.17171610    -0.00183700  0.05984875  0.05984875  0.05984875  0.05496074  0.05496074  0.03886312
   4    -1.17171610    -1.17177207    -0.00005597  0.00933788  0.00933788  0.00933788  0.01016052  0.01016052  0.00718457
   5    -1.17177207    -1.17177320    -0.00000112  0.00133711  0.00133711  0.00133711  0.00169806  0.00169806  0.00120071
   6    -1.17177320    -1.17177320    -0.00000000  0.00004099  0.00004099  0.00004099  0.00005370  0.00005370  0.00003797

 Geometry written to block  1 of record 702


 **********************************************************************************************************************************
 DATASETS  * FILE   NREC   LENGTH (MB)   RECORD NAMES
              1      21        2.76       500      610      700      900      702      950      970     1000      129      960   
                                          VAR    BASINP    GEOM    SYMINP    GEOM     ZMAT    AOBASIS   BASIS     P2S    ABASIS    
                                         1100     1400     1410     1200     1210     1080     1600     1650     1300     1700   
                                           S        T        V       H0       H01     AOSYM     SMH    MOLCAS    ERIS     OPER   
                                         1800   
                                         GRID   

              2       6        0.48       700     1000     1800     2100      701      702   
                                         GEOM     BASIS    GRID      RKS     GEOM     GEOM   

 PROGRAMS   *        TOTAL      OPTG       RKS       INT      OPTG       RKS       INT
 CPU TIMES  *        12.51      6.45      0.00      0.12      5.78      0.04      0.06
 REAL TIME  *        15.02 SEC
 DISK USED  *         8.16 MB      
 **********************************************************************************************************************************
 SETTING VALUES(1)      =        -1.17177320  AU                              
 SETTING I              =         2.00000000                                  

 DO R                   =         0.80000000   
 SETTING R1             =         0.80000000                                  


 Recomputing integrals since geometry changed

1PROGRAM * SEWARD (Integral evaluation for generally contracted gaussian basis sets)     Author: Roland Lindh, 1990

 Geometry written to block  1 of record 700

 Orientation using atomic masses  
 Molecule type: Linear
 Symmetry elements: X,Y,Z
 Rotational constants:    5595.3887387   5595.3887387      0.0000000 GHz  (calculated with average atomic masses)

 Point group  D2h 



 ATOMIC COORDINATES

 NR  ATOM    CHARGE       X              Y              Z

   1  H       1.00    0.000000000    0.000000000   -0.400000000
   2  H       1.00    0.000000000    0.000000000    0.400000000

 Bond lengths in Bohr (Angstrom)

 1-2  0.800000000
     ( 0.423341767)

 NUCLEAR CHARGE:                    2
 NUMBER OF PRIMITIVE AOS:          14
 NUMBER OF SYMMETRY AOS:           14
 NUMBER OF CONTRACTIONS:           10   (   3Ag  +   1B3u +   1B2u +   0B1g +   3B1u +   1B2g +   1B3g +   0Au  )
 NUMBER OF CORE ORBITALS:           0   (   0Ag  +   0B3u +   0B2u +   0B1g +   0B1u +   0B2g +   0B3g +   0Au  )
 NUMBER OF VALENCE ORBITALS:        2   (   1Ag  +   0B3u +   0B2u +   0B1g +   1B1u +   0B2g +   0B3g +   0Au  )


 NUCLEAR REPULSION ENERGY    1.25000000


 Eigenvalues of metric

         1 0.339E+00 0.961E+00 0.320E+01
         2 0.170E+01
         3 0.170E+01
         5 0.128E-01 0.414E-01 0.145E+01
         6 0.297E+00
         7 0.297E+00


 Contracted 2-electron integrals neglected if value below      1.0D-11
 AO integral compression algorithm  1   Integral accuracy      1.0D-11

     0.262 MB (compressed) written to integral file (100.0%)


 NUMBER OF SORTED TWO-ELECTRON INTEGRALS:        373.     BUFFER LENGTH:  32768
 NUMBER OF SEGMENTS:   1  SEGMENT LENGTH:        373      RECORD LENGTH: 524288

 Memory used in sort:       0.56 MW

 SORT1 READ         776. AND WROTE         373. INTEGRALS IN      1 RECORDS. CPU TIME:     0.00 SEC, REAL TIME:     0.00 SEC
 SORT2 READ         373. AND WROTE         373. INTEGRALS IN      1 RECORDS. CPU TIME:     0.00 SEC, REAL TIME:     0.00 SEC

 FILE SIZES:   FILE 1:     3.0 MBYTE,  FILE 4:     4.2 MBYTE,   TOTAL:      7.2 MBYTE

 OPERATOR DM      FOR CENTER  0  COORDINATES:    0.000000    0.000000    0.000000


 **********************************************************************************************************************************
 DATASETS  * FILE   NREC   LENGTH (MB)   RECORD NAMES
              1      20        2.74       500      610      700      900      702      950      970     1000      129      960   
                                          VAR    BASINP    GEOM    SYMINP    GEOM     ZMAT    AOBASIS   BASIS     P2S    ABASIS    
                                         1100     1400     1410     1200     1210     1080     1600     1650     1300     1700   
                                           S        T        V       H0       H01     AOSYM     SMH    MOLCAS    ERIS     OPER   

              2       6        0.48       700     1000     1800     2100      701      702   
                                         GEOM     BASIS    GRID      RKS     GEOM     GEOM   

 PROGRAMS   *        TOTAL       INT      OPTG       RKS       INT      OPTG       RKS       INT
 CPU TIMES  *        12.60      0.09      6.45      0.00      0.12      5.78      0.04      0.06
 REAL TIME  *        15.15 SEC
 DISK USED  *         8.16 MB      
 **********************************************************************************************************************************

 Density functional group B3LYP=B88+DIRAC+LYP+VWN5
 Functional: B88(Automatically generated B88)                                  Gradient terms: 1
 Functional: DIRAC(Automatically generated DIRAC)                              Gradient terms: 0
 Functional: LYP(Lee-Yang-Parr gradient-corrected correlation energy (1988))   Gradient terms: 1
 Functional: VWN5(Automatically generated VWN5)                                Gradient terms: 0
 Use grid at  1800.2


 Exact exchange will be calculated, factor:  0.2000

 Functional: B88                       Factor:  0.7200
 Functional: DIRAC                     Factor:  0.0800
 Functional: LYP                       Factor:  0.8100
 Functional: VWN5                      Factor:  0.1900

 Generated new metagrid on record  1800.2 with target accuracy 1.0D-06 and 713 points in CPU time    0.0
 Computed new grid on record 1800.1 in CPU time    0.0
   11702 words reserved for DFT integration

 PROGRAM * RKS-SCF (Restricted closed shell Kohn-Sham)     Authors: W. Meyer, H.-J. Werner, P.J. Knowles, 1993

 NUMBER OF ELECTRONS:       1+    1-
 CONVERGENCE THRESHOLDS:    1.00E-05 (Density)    1.00E-06 (Energy)
 MAX. NUMBER OF ITERATIONS:       60
 INTERPOLATION TYPE:            DIIS
 INTERPOLATION STEPS:              2 (START)      1 (STEP)
 LEVEL SHIFTS:                  0.00 (CLOSED)  0.00 (OPEN) 



 Use fine grid record 1800.2 for energy threshold 1.0D-06
 Molecular orbitals read from record     2100.2  Type=RKS/CANONICAL (state 1.1)

 Molecular orbital dump at record        2100.2

 ITERATION    DDIFF          GRAD             ENERGY        2-EL.EN.            DIPOLE MOMENTS         DIIS
    1      0.000D+00      0.000D+00        -0.98846517      2.566463    0.00000    0.00000    0.00000    0
    2      0.000D+00      0.619D-01        -1.01052516      2.927198    0.00000    0.00000    0.00000    1
    3      0.603D-01      0.145D-01        -1.01174266      2.859264    0.00000    0.00000    0.00000    2
    4      0.110D-01      0.123D-03        -1.01174272      2.858805    0.00000    0.00000    0.00000    3
    5      0.632D-04      0.938D-06        -1.01174272      2.858807    0.00000    0.00000    0.00000    3
    6      0.602D-06      0.172D-08        -1.01174272      2.858807    0.00000    0.00000    0.00000    0

 Final occupancy:   1   0   0   0   0   0   0

 !RKS STATE 1.1 Energy                 -1.011742719868
 Nuclear energy                         1.25000000
 One-electron energy                   -3.01935895
 Two-electron energy                    1.42940344
 SCF exchange energy                   -0.79411302     Factor=0.2000
 Density functional                    -0.67178721     B88=-0.78444592 DIRAC=-0.68022435 LYP=-0.04092286 VWN5=-0.10221409
 Virial quotient                       -0.64686265
 !RKS STATE 1.1 Dipole moment           0.00000000     0.00000000     0.00000000
 Dipole moment /Debye                   0.00000000     0.00000000     0.00000000

 Orbital energies:

         1.1          2.1          3.1
     -0.510404     0.464307     2.884804

         1.2
      1.723276

         1.3
      1.723276

         1.5          2.5
      0.186172     1.456021

         1.6
      2.983249

         1.7
      2.983249


 **********************************************************************************************************************************
 DATASETS  * FILE   NREC   LENGTH (MB)   RECORD NAMES
              1      21        2.77       500      610      700      900      702      950      970     1000      129      960   
                                          VAR    BASINP    GEOM    SYMINP    GEOM     ZMAT    AOBASIS   BASIS     P2S    ABASIS    
                                         1100     1400     1410     1200     1210     1080     1600     1650     1300     1700   
                                           S        T        V       H0       H01     AOSYM     SMH    MOLCAS    ERIS     OPER   
                                         1800   
                                         GRID   

              2       6        0.48       700     1000     1800     2100      701      702   
                                         GEOM     BASIS    GRID      RKS     GEOM     GEOM   

 PROGRAMS   *        TOTAL       RKS       INT      OPTG       RKS       INT      OPTG       RKS       INT
 CPU TIMES  *        12.61      0.01      0.09      6.45      0.00      0.12      5.78      0.04      0.06
 REAL TIME  *        15.17 SEC
 DISK USED  *         8.16 MB      
 **********************************************************************************************************************************


 PROGRAM * OPT (Geometry optimization)     Authors: F. Eckert and H.-J. Werner


 BFGS update of hessian

 Geometry optimization using default procedure for command RKS-SCF

 Inactive variables:    R1

 Active variables: 

 Geometry written to block  1 of record 702

 Making model hessian for cartesian coordinates

 Quadratic Steepest Descent - Minimum Search

 Optimization point  1

 Variable                      Last           Current        Next           Gradient       Hessian
 E(RKS-SCF000) / Hartree     0.00000000    -1.01174272     0.00000000
 HX1A / BOHR                 0.00000000     0.00000000     0.00000000     0.00000000     0.00000000
 HY1A / BOHR                 0.00000000     0.00000000     0.00000000     0.00000000     0.00000000
 HZ1A / BOHR                 0.00000000    -0.40000000    -0.67548414     0.80889533     0.00000000
 HX2A / BOHR                 0.00000000     0.00000000     0.00000000     0.00000000     0.00000000
 HY2A / BOHR                 0.00000000     0.00000000     0.00000000     0.00000000     0.00000000
 HZ2A / BOHR                 0.00000000     0.40000000     0.67548414    -0.80889533     2.93626829
 Convergence:                0.00000000  (line search)     0.38959340     1.14395075  (total)

 Optimization point  2

 Variable                      Last           Current        Next           Gradient       Hessian
 E(RKS-SCF000) / Hartree    -1.01174272    -1.17119861     0.00000000
 HX1A / BOHR                 0.00000000     0.00000000     0.00000000     0.00000000     0.00000000
 HY1A / BOHR                 0.00000000     0.00000000     0.00000000     0.00000000     0.00000000
 HZ1A / BOHR                -0.40000000    -0.67548414    -0.68326078     0.02220742     0.00000000
 HX2A / BOHR                 0.00000000     0.00000000     0.00000000     0.00000000     0.00000000
 HY2A / BOHR                 0.00000000     0.00000000     0.00000000     0.00000000     0.00000000
 HZ2A / BOHR                 0.40000000     0.67548414     0.68326078    -0.02220742     0.89764933
 Convergence:                0.00000000  (line search)     0.01099784     0.03140604  (total)

 Optimization point  3

 Variable                      Last           Current        Next           Gradient       Hessian
 E(RKS-SCF000) / Hartree    -1.17119861    -1.17149015     0.00000000
 HX1A / BOHR                 0.00000000     0.00000000     0.00000000     0.00000000     0.00000000
 HY1A / BOHR                 0.00000000     0.00000000     0.00000000     0.00000000     0.00000000
 HZ1A / BOHR                -0.67548414    -0.68326078    -0.70053609     0.01531378     0.00000000
 HX2A / BOHR                 0.00000000     0.00000000     0.00000000     0.00000000     0.00000000
 HY2A / BOHR                 0.00000000     0.00000000     0.00000000     0.00000000     0.00000000
 HZ2A / BOHR                 0.67548414     0.68326078     0.70053609    -0.01531378     0.86049997
 Convergence:                0.00000000  (line search)     0.02443098     0.02165695  (total)

 Optimization point  4

 Variable                      Last           Current        Next           Gradient       Hessian
 E(RKS-SCF000) / Hartree    -1.17149015    -1.17177039     0.00000000
 HX1A / BOHR                 0.00000000     0.00000000     0.00000000     0.00000000     0.00000000
 HY1A / BOHR                 0.00000000     0.00000000     0.00000000     0.00000000     0.00000000
 HZ1A / BOHR                -0.68326078    -0.70053609    -0.70205147     0.00123498     0.00000000
 HX2A / BOHR                 0.00000000     0.00000000     0.00000000     0.00000000     0.00000000
 HY2A / BOHR                 0.00000000     0.00000000     0.00000000     0.00000000     0.00000000
 HZ2A / BOHR                 0.68326078     0.70053609     0.70205147    -0.00123498     0.78202874
 Convergence:                0.00000000  (line search)     0.00214307     0.00174653  (total)

 Freezing grid

 Optimization point  5

 Variable                      Last           Current        Next           Gradient       Hessian
 E(RKS-SCF000) / Hartree    -1.17177039    -1.17177319     0.00000000
 HX1A / BOHR                 0.00000000     0.00000000     0.00000000     0.00000000     0.00000000
 HY1A / BOHR                 0.00000000     0.00000000     0.00000000     0.00000000     0.00000000
 HZ1A / BOHR                -0.70053609    -0.70205147    -0.70214864     0.00007442     0.00000000
 HX2A / BOHR                 0.00000000     0.00000000     0.00000000     0.00000000     0.00000000
 HY2A / BOHR                 0.00000000     0.00000000     0.00000000     0.00000000     0.00000000
 HZ2A / BOHR                 0.70053609     0.70205147     0.70214864    -0.00007442     0.77540827
 Convergence:                0.00000000  (line search)     0.00013742     0.00010524  (total)

 END OF GEOMETRY OPTIMIZATION.    TOTAL CPU:         4.7 SEC

 ITER.   ENERGY(OLD)    ENERGY(NEW)      DE          GRADMAX     GRADNORM    GRADRMS     STEPMAX     STEPLEN     STEPRMS
   1    -1.01174272    -1.17119861    -0.15945589  1.14395075  1.14395075  1.14395075  0.38959340  0.38959340  0.27548414
   2    -1.17119861    -1.17149015    -0.00029154  0.03140604  0.03140604  0.03140604  0.01099784  0.01099784  0.00777664
   3    -1.17149015    -1.17177039    -0.00028024  0.02165695  0.02165695  0.02165695  0.02443098  0.02443098  0.01727531
   4    -1.17177039    -1.17177319    -0.00000280  0.00174653  0.00174653  0.00174653  0.00214307  0.00214307  0.00151538
   5    -1.17177319    -1.17177320    -0.00000001  0.00010524  0.00010524  0.00010524  0.00013742  0.00013742  0.00009717

 Geometry written to block  1 of record 702


 **********************************************************************************************************************************
 DATASETS  * FILE   NREC   LENGTH (MB)   RECORD NAMES
              1      21        2.76       500      610      700      900      702      950      970     1000      129      960   
                                          VAR    BASINP    GEOM    SYMINP    GEOM     ZMAT    AOBASIS   BASIS     P2S    ABASIS    
                                         1100     1400     1410     1200     1210     1080     1600     1650     1300     1700   
                                           S        T        V       H0       H01     AOSYM     SMH    MOLCAS    ERIS     OPER   
                                         1800   
                                         GRID   

              2       6        0.48       700     1000     1800     2100      701      702   
                                         GEOM     BASIS    GRID      RKS     GEOM     GEOM   

 PROGRAMS   *        TOTAL      OPTG       RKS       INT      OPTG       RKS       INT      OPTG       RKS       INT
 CPU TIMES  *        17.33      4.72      0.01      0.09      6.45      0.00      0.12      5.78      0.04      0.06
 REAL TIME  *        20.53 SEC
 DISK USED  *         8.16 MB      
 **********************************************************************************************************************************
 SETTING VALUES(2)      =        -1.17177320  AU                              
 SETTING I              =         3.00000000                                  

 DO R                   =         0.95000000   
 SETTING R1             =         0.95000000                                  


 Recomputing integrals since geometry changed

1PROGRAM * SEWARD (Integral evaluation for generally contracted gaussian basis sets)     Author: Roland Lindh, 1990

 Geometry written to block  1 of record 700

 Orientation using atomic masses  
 Molecule type: Linear
 Symmetry elements: X,Y,Z
 Rotational constants:    3967.9211000   3967.9211000      0.0000000 GHz  (calculated with average atomic masses)

 Point group  D2h 



 ATOMIC COORDINATES

 NR  ATOM    CHARGE       X              Y              Z

   1  H       1.00    0.000000000    0.000000000   -0.475000000
   2  H       1.00    0.000000000    0.000000000    0.475000000

 Bond lengths in Bohr (Angstrom)

 1-2  0.950000000
     ( 0.502718349)

 NUCLEAR CHARGE:                    2
 NUMBER OF PRIMITIVE AOS:          14
 NUMBER OF SYMMETRY AOS:           14
 NUMBER OF CONTRACTIONS:           10   (   3Ag  +   1B3u +   1B2u +   0B1g +   3B1u +   1B2g +   1B3g +   0Au  )
 NUMBER OF CORE ORBITALS:           0   (   0Ag  +   0B3u +   0B2u +   0B1g +   0B1u +   0B2g +   0B3g +   0Au  )
 NUMBER OF VALENCE ORBITALS:        2   (   1Ag  +   0B3u +   0B2u +   0B1g +   1B1u +   0B2g +   0B3g +   0Au  )


 NUCLEAR REPULSION ENERGY    1.05263158


 Eigenvalues of metric

         1 0.372E+00 0.108E+01 0.315E+01
         2 0.161E+01
         3 0.161E+01
         5 0.203E-01 0.548E-01 0.132E+01
         6 0.391E+00
         7 0.391E+00


 Contracted 2-electron integrals neglected if value below      1.0D-11
 AO integral compression algorithm  1   Integral accuracy      1.0D-11

     0.262 MB (compressed) written to integral file (100.0%)


 NUMBER OF SORTED TWO-ELECTRON INTEGRALS:        373.     BUFFER LENGTH:  32768
 NUMBER OF SEGMENTS:   1  SEGMENT LENGTH:        373      RECORD LENGTH: 524288

 Memory used in sort:       0.56 MW

 SORT1 READ         776. AND WROTE         373. INTEGRALS IN      1 RECORDS. CPU TIME:     0.01 SEC, REAL TIME:     0.00 SEC
 SORT2 READ         373. AND WROTE         373. INTEGRALS IN      1 RECORDS. CPU TIME:     0.00 SEC, REAL TIME:     0.00 SEC

 FILE SIZES:   FILE 1:     3.0 MBYTE,  FILE 4:     4.2 MBYTE,   TOTAL:      7.2 MBYTE

 OPERATOR DM      FOR CENTER  0  COORDINATES:    0.000000    0.000000    0.000000


 **********************************************************************************************************************************
 DATASETS  * FILE   NREC   LENGTH (MB)   RECORD NAMES
              1      20        2.74       500      610      700      900      702      950      970     1000      129      960   
                                          VAR    BASINP    GEOM    SYMINP    GEOM     ZMAT    AOBASIS   BASIS     P2S    ABASIS    
                                         1100     1400     1410     1200     1210     1080     1600     1650     1300     1700   
                                           S        T        V       H0       H01     AOSYM     SMH    MOLCAS    ERIS     OPER   

              2       6        0.48       700     1000     1800     2100      701      702   
                                         GEOM     BASIS    GRID      RKS     GEOM     GEOM   

 PROGRAMS   *        TOTAL       INT      OPTG       RKS       INT      OPTG       RKS       INT      OPTG       RKS       INT
 CPU TIMES  *        17.60      0.27      4.72      0.01      0.09      6.45      0.00      0.12      5.78      0.04      0.06
 REAL TIME  *        20.85 SEC
 DISK USED  *         8.16 MB      
 **********************************************************************************************************************************

 Density functional group B3LYP=B88+DIRAC+LYP+VWN5
 Functional: B88(Automatically generated B88)                                  Gradient terms: 1
 Functional: DIRAC(Automatically generated DIRAC)                              Gradient terms: 0
 Functional: LYP(Lee-Yang-Parr gradient-corrected correlation energy (1988))   Gradient terms: 1
 Functional: VWN5(Automatically generated VWN5)                                Gradient terms: 0
 Use grid at  1800.2


 Exact exchange will be calculated, factor:  0.2000

 Functional: B88                       Factor:  0.7200
 Functional: DIRAC                     Factor:  0.0800
 Functional: LYP                       Factor:  0.8100
 Functional: VWN5                      Factor:  0.1900

 Generated new metagrid on record  1800.2 with target accuracy 1.0D-06 and 694 points in CPU time    0.0
 Computed new grid on record 1800.1 in CPU time    0.0
   11702 words reserved for DFT integration

 PROGRAM * RKS-SCF (Restricted closed shell Kohn-Sham)     Authors: W. Meyer, H.-J. Werner, P.J. Knowles, 1993

 NUMBER OF ELECTRONS:       1+    1-
 CONVERGENCE THRESHOLDS:    1.00E-05 (Density)    1.00E-06 (Energy)
 MAX. NUMBER OF ITERATIONS:       60
 INTERPOLATION TYPE:            DIIS
 INTERPOLATION STEPS:              2 (START)      1 (STEP)
 LEVEL SHIFTS:                  0.00 (CLOSED)  0.00 (OPEN) 



 Use fine grid record 1800.2 for energy threshold 1.0D-06
 Molecular orbitals read from record     2100.2  Type=RKS/CANONICAL (state 1.1)

 Molecular orbital dump at record        2100.2

 ITERATION    DDIFF          GRAD             ENERGY        2-EL.EN.            DIPOLE MOMENTS         DIIS
    1      0.000D+00      0.000D+00        -1.08952480      2.522796    0.00000    0.00000    0.00000    0
    2      0.000D+00      0.426D-01        -1.10037521      2.765765    0.00000    0.00000    0.00000    1
    3      0.442D-01      0.998D-02        -1.10095094      2.720910    0.00000    0.00000    0.00000    2
    4      0.777D-02      0.103D-03        -1.10095097      2.720646    0.00000    0.00000    0.00000    3
    5      0.327D-04      0.575D-06        -1.10095097      2.720646    0.00000    0.00000    0.00000    3
    6      0.227D-06      0.352D-09        -1.10095097      2.720646    0.00000    0.00000    0.00000    0

 Final occupancy:   1   0   0   0   0   0   0

 !RKS STATE 1.1 Energy                 -1.100950972045
 Nuclear energy                         1.05263158
 One-electron energy                   -2.87199178
 Two-electron energy                    1.36032302
 SCF exchange energy                   -0.75573501     Factor=0.2000
 Density functional                    -0.64191379     B88=-0.74777598 DIRAC=-0.64800064 LYP=-0.04029461 VWN5=-0.10019155
 Virial quotient                       -0.76932535
 !RKS STATE 1.1 Dipole moment           0.00000000     0.00000000     0.00000000
 Dipole moment /Debye                   0.00000000     0.00000000     0.00000000

 Orbital energies:

         1.1          2.1          3.1
     -0.486579     0.492350     2.786820

         1.2
      1.700497

         1.3
      1.700497

         1.5          2.5
      0.167912     1.315554

         1.6
      2.894318

         1.7
      2.894318


 **********************************************************************************************************************************
 DATASETS  * FILE   NREC   LENGTH (MB)   RECORD NAMES
              1      21        2.77       500      610      700      900      702      950      970     1000      129      960   
                                          VAR    BASINP    GEOM    SYMINP    GEOM     ZMAT    AOBASIS   BASIS     P2S    ABASIS    
                                         1100     1400     1410     1200     1210     1080     1600     1650     1300     1700   
                                           S        T        V       H0       H01     AOSYM     SMH    MOLCAS    ERIS     OPER   
                                         1800   
                                         GRID   

              2       6        0.48       700     1000     1800     2100      701      702   
                                         GEOM     BASIS    GRID      RKS     GEOM     GEOM   

 PROGRAMS   *        TOTAL       RKS       INT      OPTG       RKS       INT      OPTG       RKS       INT      OPTG       RKS
 CPU TIMES  *        17.66      0.06      0.27      4.72      0.01      0.09      6.45      0.00      0.12      5.78      0.04
 REAL TIME  *        20.96 SEC
 DISK USED  *         8.16 MB      
 **********************************************************************************************************************************


 PROGRAM * OPT (Geometry optimization)     Authors: F. Eckert and H.-J. Werner


 BFGS update of hessian

 Geometry optimization using default procedure for command RKS-SCF

 Inactive variables:    R1

 Active variables: 

 Geometry written to block  1 of record 702

 Making model hessian for cartesian coordinates

 Quadratic Steepest Descent - Minimum Search

 Optimization point  1

 Variable                      Last           Current        Next           Gradient       Hessian
 E(RKS-SCF000) / Hartree     0.00000000    -1.10095097     0.00000000
 HX1A / BOHR                 0.00000000     0.00000000     0.00000000     0.00000000     0.00000000
 HY1A / BOHR                 0.00000000     0.00000000     0.00000000     0.00000000     0.00000000
 HZ1A / BOHR                 0.00000000    -0.47500000    -0.66093037     0.41989796     0.00000000
 HX2A / BOHR                 0.00000000     0.00000000     0.00000000     0.00000000     0.00000000
 HY2A / BOHR                 0.00000000     0.00000000     0.00000000     0.00000000     0.00000000
 HZ2A / BOHR                 0.00000000     0.47500000     0.66093037    -0.41989796     2.25836135
 Convergence:                0.00000000  (line search)     0.26294525     0.59382539  (total)

 Optimization point  2

 Variable                      Last           Current        Next           Gradient       Hessian
 E(RKS-SCF000) / Hartree    -1.10095097    -1.17035489     0.00000000
 HX1A / BOHR                 0.00000000     0.00000000     0.00000000     0.00000000     0.00000000
 HY1A / BOHR                 0.00000000     0.00000000     0.00000000     0.00000000     0.00000000
 HZ1A / BOHR                -0.47500000    -0.66093037    -0.67841692     0.03609614     0.00000000
 HX2A / BOHR                 0.00000000     0.00000000     0.00000000     0.00000000     0.00000000
 HY2A / BOHR                 0.00000000     0.00000000     0.00000000     0.00000000     0.00000000
 HZ2A / BOHR                 0.47500000     0.66093037     0.67841692    -0.03609614     0.97027444
 Convergence:                0.00000000  (line search)     0.02472971     0.05104765  (total)

 Optimization point  3

 Variable                      Last           Current        Next           Gradient       Hessian
 E(RKS-SCF000) / Hartree    -1.17035489    -1.17132109     0.00000000
 HX1A / BOHR                 0.00000000     0.00000000     0.00000000     0.00000000     0.00000000
 HY1A / BOHR                 0.00000000     0.00000000     0.00000000     0.00000000     0.00000000
 HZ1A / BOHR                -0.66093037    -0.67841692    -0.69911073     0.01956416     0.00000000
 HX2A / BOHR                 0.00000000     0.00000000     0.00000000     0.00000000     0.00000000
 HY2A / BOHR                 0.00000000     0.00000000     0.00000000     0.00000000     0.00000000
 HZ2A / BOHR                 0.66093037     0.67841692     0.69911073    -0.01956416     0.88350479
 Convergence:                0.00000000  (line search)     0.02926546     0.02766790  (total)

 Optimization point  4

 Variable                      Last           Current        Next           Gradient       Hessian
 E(RKS-SCF000) / Hartree    -1.17132109    -1.17176618     0.00000000
 HX1A / BOHR                 0.00000000     0.00000000     0.00000000     0.00000000     0.00000000
 HY1A / BOHR                 0.00000000     0.00000000     0.00000000     0.00000000     0.00000000
 HZ1A / BOHR                -0.67841692    -0.69911073    -0.70191293     0.00233328     0.00000000
 HX2A / BOHR                 0.00000000     0.00000000     0.00000000     0.00000000     0.00000000
 HY2A / BOHR                 0.00000000     0.00000000     0.00000000     0.00000000     0.00000000
 HZ2A / BOHR                 0.67841692     0.69911073     0.70191293    -0.00233328     0.78829433
 Convergence:                0.00000000  (line search)     0.00396292     0.00329976  (total)

 Freezing grid

 Optimization point  5

 Variable                      Last           Current        Next           Gradient       Hessian
 E(RKS-SCF000) / Hartree    -1.17176618    -1.17177316     0.00000000
 HX1A / BOHR                 0.00000000     0.00000000     0.00000000     0.00000000     0.00000000
 HY1A / BOHR                 0.00000000     0.00000000     0.00000000     0.00000000     0.00000000
 HZ1A / BOHR                -0.69911073    -0.70191293    -0.70214693     0.00017983     0.00000000
 HX2A / BOHR                 0.00000000     0.00000000     0.00000000     0.00000000     0.00000000
 HY2A / BOHR                 0.00000000     0.00000000     0.00000000     0.00000000     0.00000000
 HZ2A / BOHR                 0.69911073     0.70191293     0.70214693    -0.00017983     0.77601180
 Convergence:                0.00000000  (line search)     0.00033093     0.00025431  (total)

 END OF GEOMETRY OPTIMIZATION.    TOTAL CPU:         5.9 SEC

 ITER.   ENERGY(OLD)    ENERGY(NEW)      DE          GRADMAX     GRADNORM    GRADRMS     STEPMAX     STEPLEN     STEPRMS
   1    -1.10095097    -1.17035489    -0.06940392  0.59382539  0.59382539  0.59382539  0.26294525  0.26294525  0.18593037
   2    -1.17035489    -1.17132109    -0.00096620  0.05104765  0.05104765  0.05104765  0.02472971  0.02472971  0.01748655
   3    -1.17132109    -1.17176618    -0.00044509  0.02766790  0.02766790  0.02766790  0.02926546  0.02926546  0.02069381
   4    -1.17176618    -1.17177316    -0.00000698  0.00329976  0.00329976  0.00329976  0.00396292  0.00396292  0.00280220
   5    -1.17177316    -1.17177320    -0.00000004  0.00025431  0.00025431  0.00025431  0.00033093  0.00033093  0.00023400

 Geometry written to block  1 of record 702


 **********************************************************************************************************************************
 DATASETS  * FILE   NREC   LENGTH (MB)   RECORD NAMES
              1      21        2.76       500      610      700      900      702      950      970     1000      129      960   
                                          VAR    BASINP    GEOM    SYMINP    GEOM     ZMAT    AOBASIS   BASIS     P2S    ABASIS    
                                         1100     1400     1410     1200     1210     1080     1600     1650     1300     1700   
                                           S        T        V       H0       H01     AOSYM     SMH    MOLCAS    ERIS     OPER   
                                         1800   
                                         GRID   

              2       6        0.48       700     1000     1800     2100      701      702   
                                         GEOM     BASIS    GRID      RKS     GEOM     GEOM   

 PROGRAMS   *        TOTAL      OPTG       RKS       INT      OPTG       RKS       INT      OPTG       RKS       INT      OPTG
 CPU TIMES  *        23.61      5.95      0.06      0.27      4.72      0.01      0.09      6.45      0.00      0.12      5.78
 REAL TIME  *        27.41 SEC
 DISK USED  *         8.16 MB      
 **********************************************************************************************************************************
 SETTING VALUES(3)      =        -1.17177320  AU                              
 SETTING I              =         4.00000000                                  

 DO R                   =         1.10000000   
 SETTING R1             =         1.10000000                                  


 Recomputing integrals since geometry changed

1PROGRAM * SEWARD (Integral evaluation for generally contracted gaussian basis sets)     Author: Roland Lindh, 1990

 Geometry written to block  1 of record 700

 Orientation using atomic masses  
 Molecule type: Linear
 Symmetry elements: X,Y,Z
 Rotational constants:    2959.5444568   2959.5444568      0.0000000 GHz  (calculated with average atomic masses)

 Point group  D2h 



 ATOMIC COORDINATES

 NR  ATOM    CHARGE       X              Y              Z

   1  H       1.00    0.000000000    0.000000000   -0.550000000
   2  H       1.00    0.000000000    0.000000000    0.550000000

 Bond lengths in Bohr (Angstrom)

 1-2  1.100000000
     ( 0.582094930)

 NUCLEAR CHARGE:                    2
 NUMBER OF PRIMITIVE AOS:          14
 NUMBER OF SYMMETRY AOS:           14
 NUMBER OF CONTRACTIONS:           10   (   3Ag  +   1B3u +   1B2u +   0B1g +   3B1u +   1B2g +   1B3g +   0Au  )
 NUMBER OF CORE ORBITALS:           0   (   0Ag  +   0B3u +   0B2u +   0B1g +   0B1u +   0B2g +   0B3g +   0Au  )
 NUMBER OF VALENCE ORBITALS:        2   (   1Ag  +   0B3u +   0B2u +   0B1g +   1B1u +   0B2g +   0B3g +   0Au  )


 NUCLEAR REPULSION ENERGY    0.90909091


 Eigenvalues of metric

         1 0.389E+00 0.120E+01 0.309E+01
         2 0.151E+01
         3 0.151E+01
         5 0.350E-01 0.688E-01 0.121E+01
         6 0.486E+00
         7 0.486E+00


 Contracted 2-electron integrals neglected if value below      1.0D-11
 AO integral compression algorithm  1   Integral accuracy      1.0D-11

     0.262 MB (compressed) written to integral file (100.0%)


 NUMBER OF SORTED TWO-ELECTRON INTEGRALS:        373.     BUFFER LENGTH:  32768
 NUMBER OF SEGMENTS:   1  SEGMENT LENGTH:        373      RECORD LENGTH: 524288

 Memory used in sort:       0.56 MW

 SORT1 READ         776. AND WROTE         373. INTEGRALS IN      1 RECORDS. CPU TIME:     0.00 SEC, REAL TIME:     0.00 SEC
 SORT2 READ         373. AND WROTE         373. INTEGRALS IN      1 RECORDS. CPU TIME:     0.00 SEC, REAL TIME:     0.00 SEC

 FILE SIZES:   FILE 1:     3.0 MBYTE,  FILE 4:     4.2 MBYTE,   TOTAL:      7.2 MBYTE

 OPERATOR DM      FOR CENTER  0  COORDINATES:    0.000000    0.000000    0.000000


 **********************************************************************************************************************************
 DATASETS  * FILE   NREC   LENGTH (MB)   RECORD NAMES
              1      20        2.74       500      610      700      900      702      950      970     1000      129      960   
                                          VAR    BASINP    GEOM    SYMINP    GEOM     ZMAT    AOBASIS   BASIS     P2S    ABASIS    
                                         1100     1400     1410     1200     1210     1080     1600     1650     1300     1700   
                                           S        T        V       H0       H01     AOSYM     SMH    MOLCAS    ERIS     OPER   

              2       6        0.48       700     1000     1800     2100      701      702   
                                         GEOM     BASIS    GRID      RKS     GEOM     GEOM   

 PROGRAMS   *        TOTAL       INT      OPTG       RKS       INT      OPTG       RKS       INT      OPTG       RKS       INT
 CPU TIMES  *        23.73      0.11      5.95      0.06      0.27      4.72      0.01      0.09      6.45      0.00      0.12
 REAL TIME  *        27.55 SEC
 DISK USED  *         8.16 MB      
 **********************************************************************************************************************************

 Density functional group B3LYP=B88+DIRAC+LYP+VWN5
 Functional: B88(Automatically generated B88)                                  Gradient terms: 1
 Functional: DIRAC(Automatically generated DIRAC)                              Gradient terms: 0
 Functional: LYP(Lee-Yang-Parr gradient-corrected correlation energy (1988))   Gradient terms: 1
 Functional: VWN5(Automatically generated VWN5)                                Gradient terms: 0
 Use grid at  1800.2


 Exact exchange will be calculated, factor:  0.2000

 Functional: B88                       Factor:  0.7200
 Functional: DIRAC                     Factor:  0.0800
 Functional: LYP                       Factor:  0.8100
 Functional: VWN5                      Factor:  0.1900

 Generated new metagrid on record  1800.2 with target accuracy 1.0D-06 and 672 points in CPU time    0.0
 Computed new grid on record 1800.1 in CPU time    0.0
   11702 words reserved for DFT integration

 PROGRAM * RKS-SCF (Restricted closed shell Kohn-Sham)     Authors: W. Meyer, H.-J. Werner, P.J. Knowles, 1993

 NUMBER OF ELECTRONS:       1+    1-
 CONVERGENCE THRESHOLDS:    1.00E-05 (Density)    1.00E-06 (Energy)
 MAX. NUMBER OF ITERATIONS:       60
 INTERPOLATION TYPE:            DIIS
 INTERPOLATION STEPS:              2 (START)      1 (STEP)
 LEVEL SHIFTS:                  0.00 (CLOSED)  0.00 (OPEN) 



 Use fine grid record 1800.2 for energy threshold 1.0D-06
 Molecular orbitals read from record     2100.2  Type=RKS/CANONICAL (state 1.1)

 Molecular orbital dump at record        2100.2

 ITERATION    DDIFF          GRAD             ENERGY        2-EL.EN.            DIPOLE MOMENTS         DIIS
    1      0.000D+00      0.000D+00        -1.14171732      2.475367    0.00000    0.00000    0.00000    0
    2      0.000D+00      0.262D-01        -1.14596411      2.619789    0.00000    0.00000    0.00000    1
    3      0.288D-01      0.598D-02        -1.14617081      2.594121    0.00000    0.00000    0.00000    2
    4      0.476D-02      0.740D-04        -1.14617083      2.594022    0.00000    0.00000    0.00000    3
    5      0.151D-04      0.237D-06        -1.14617083      2.594022    0.00000    0.00000    0.00000    3
    6      0.527D-07      0.164D-10        -1.14617083      2.594022    0.00000    0.00000    0.00000    0

 Final occupancy:   1   0   0   0   0   0   0

 !RKS STATE 1.1 Energy                 -1.146170829782
 Nuclear energy                         0.90909091
 One-electron energy                   -2.73750630
 Two-electron energy                    1.29701085
 SCF exchange energy                   -0.72056158     Factor=0.2000
 Density functional                    -0.61476628     B88=-0.71456030 DIRAC=-0.61869719 LYP=-0.03964221 VWN5=-0.09829947
 Virial quotient                       -0.86935390
 !RKS STATE 1.1 Dipole moment           0.00000000     0.00000000     0.00000000
 Dipole moment /Debye                   0.00000000     0.00000000     0.00000000

 Orbital energies:

         1.1          2.1          3.1
     -0.465166     0.521231     2.668730

         1.2
      1.683984

         1.3
      1.683984

         1.5          2.5
      0.148022     1.202748

         1.6
      2.802877

         1.7
      2.802877


 **********************************************************************************************************************************
 DATASETS  * FILE   NREC   LENGTH (MB)   RECORD NAMES
              1      21        2.76       500      610      700      900      702      950      970     1000      129      960   
                                          VAR    BASINP    GEOM    SYMINP    GEOM     ZMAT    AOBASIS   BASIS     P2S    ABASIS    
                                         1100     1400     1410     1200     1210     1080     1600     1650     1300     1700   
                                           S        T        V       H0       H01     AOSYM     SMH    MOLCAS    ERIS     OPER   
                                         1800   
                                         GRID   

              2       6        0.48       700     1000     1800     2100      701      702   
                                         GEOM     BASIS    GRID      RKS     GEOM     GEOM   

 PROGRAMS   *        TOTAL       RKS       INT      OPTG       RKS       INT      OPTG       RKS       INT      OPTG       RKS
 CPU TIMES  *        23.78      0.05      0.11      5.95      0.06      0.27      4.72      0.01      0.09      6.45      0.00
 REAL TIME  *        27.60 SEC
 DISK USED  *         8.16 MB      
 **********************************************************************************************************************************


 PROGRAM * OPT (Geometry optimization)     Authors: F. Eckert and H.-J. Werner


 BFGS update of hessian

 Geometry optimization using default procedure for command RKS-SCF

 Inactive variables:    R1

 Active variables: 

 Geometry written to block  1 of record 702

 Making model hessian for cartesian coordinates

 Quadratic Steepest Descent - Minimum Search

 Optimization point  1

 Variable                      Last           Current        Next           Gradient       Hessian
 E(RKS-SCF000) / Hartree     0.00000000    -1.14617083     0.00000000
 HX1A / BOHR                 0.00000000     0.00000000     0.00000000     0.00000000     0.00000000
 HY1A / BOHR                 0.00000000     0.00000000     0.00000000     0.00000000     0.00000000
 HZ1A / BOHR                 0.00000000    -0.55000000    -0.67233162     0.20313586     0.00000000
 HX2A / BOHR                 0.00000000     0.00000000     0.00000000     0.00000000     0.00000000
 HY2A / BOHR                 0.00000000     0.00000000     0.00000000     0.00000000     0.00000000
 HZ2A / BOHR                 0.00000000     0.55000000     0.67233162    -0.20313586     1.66053441
 Convergence:                0.00000000  (line search)     0.17300303     0.28727749  (total)

 Optimization point  2

 Variable                      Last           Current        Next           Gradient       Hessian
 E(RKS-SCF000) / Hartree    -1.14617083    -1.17105074     0.00000000
 HX1A / BOHR                 0.00000000     0.00000000     0.00000000     0.00000000     0.00000000
 HY1A / BOHR                 0.00000000     0.00000000     0.00000000     0.00000000     0.00000000
 HZ1A / BOHR                -0.55000000    -0.67233162    -0.68956159     0.02507871     0.00000000
 HX2A / BOHR                 0.00000000     0.00000000     0.00000000     0.00000000     0.00000000
 HY2A / BOHR                 0.00000000     0.00000000     0.00000000     0.00000000     0.00000000
 HZ2A / BOHR                 0.55000000     0.67233162     0.68956159    -0.02507871     0.91303621
 Convergence:                0.00000000  (line search)     0.02436686     0.03546666  (total)

 Optimization point  3

 Variable                      Last           Current        Next           Gradient       Hessian
 E(RKS-SCF000) / Hartree    -1.17105074    -1.17164932     0.00000000
 HX1A / BOHR                 0.00000000     0.00000000     0.00000000     0.00000000     0.00000000
 HY1A / BOHR                 0.00000000     0.00000000     0.00000000     0.00000000     0.00000000
 HZ1A / BOHR                -0.67233162    -0.68956159    -0.70096238     0.00998636     0.00000000
 HX2A / BOHR                 0.00000000     0.00000000     0.00000000     0.00000000     0.00000000
 HY2A / BOHR                 0.00000000     0.00000000     0.00000000     0.00000000     0.00000000
 HZ2A / BOHR                 0.67233162     0.68956159     0.70096238    -0.00998636     0.83123622
 Convergence:                0.00000000  (line search)     0.01612316     0.01412285  (total)

 Optimization point  4

 Variable                      Last           Current        Next           Gradient       Hessian
 E(RKS-SCF000) / Hartree    -1.17164932    -1.17177217     0.00000000
 HX1A / BOHR                 0.00000000     0.00000000     0.00000000     0.00000000     0.00000000
 HY1A / BOHR                 0.00000000     0.00000000     0.00000000     0.00000000     0.00000000
 HZ1A / BOHR                -0.68956159    -0.70096238    -0.70209955     0.00090574     0.00000000
 HX2A / BOHR                 0.00000000     0.00000000     0.00000000     0.00000000     0.00000000
 HY2A / BOHR                 0.00000000     0.00000000     0.00000000     0.00000000     0.00000000
 HZ2A / BOHR                 0.68956159     0.70096238     0.70209955    -0.00090574     0.78016209
 Convergence:                0.00000000  (line search)     0.00160819     0.00128091  (total)

 Freezing grid

 Optimization point  5

 Variable                      Last           Current        Next           Gradient       Hessian
 E(RKS-SCF000) / Hartree    -1.17177217    -1.17177320     0.00000000
 HX1A / BOHR                 0.00000000     0.00000000     0.00000000     0.00000000     0.00000000
 HY1A / BOHR                 0.00000000     0.00000000     0.00000000     0.00000000     0.00000000
 HZ1A / BOHR                -0.70096238    -0.70209955    -0.70214916     0.00003787     0.00000000
 HX2A / BOHR                 0.00000000     0.00000000     0.00000000     0.00000000     0.00000000
 HY2A / BOHR                 0.00000000     0.00000000     0.00000000     0.00000000     0.00000000
 HZ2A / BOHR                 0.70096238     0.70209955     0.70214916    -0.00003787     0.77519892
[...]
                                          VAR    BASINP    GEOM    SYMINP    GEOM     ZMAT    AOBASIS   BASIS     P2S    ABASIS    
                                         1100     1400     1410     1200     1210     1080     1600     1650     1300     1700   
                                           S        T        V       H0       H01     AOSYM     SMH    MOLCAS    ERIS     OPER   

              2       6        0.49       700     1000     1800     2100      701      702   
                                         GEOM     BASIS    GRID      RKS     GEOM     GEOM   

 PROGRAMS   *        TOTAL       INT      OPTG       RKS       INT      OPTG       RKS       INT      OPTG       RKS       INT
 CPU TIMES  *       125.55      0.09      6.74      0.00      0.08      6.16      0.02      0.05      4.80      0.03      0.09
 REAL TIME  *       142.05 SEC
 DISK USED  *         8.18 MB      
 **********************************************************************************************************************************

 Density functional group B3LYP=B88+DIRAC+LYP+VWN5
 Functional: B88(Automatically generated B88)                                  Gradient terms: 1
 Functional: DIRAC(Automatically generated DIRAC)                              Gradient terms: 0
 Functional: LYP(Lee-Yang-Parr gradient-corrected correlation energy (1988))   Gradient terms: 1
 Functional: VWN5(Automatically generated VWN5)                                Gradient terms: 0
 Use grid at  1800.2


 Exact exchange will be calculated, factor:  0.2000

 Functional: B88                       Factor:  0.7200
 Functional: DIRAC                     Factor:  0.0800
 Functional: LYP                       Factor:  0.8100
 Functional: VWN5                      Factor:  0.1900

 Generated new metagrid on record  1800.2 with target accuracy 1.0D-06 and 532 points in CPU time    0.0
 Computed new grid on record 1800.1 in CPU time    0.0
   11702 words reserved for DFT integration

 PROGRAM * RKS-SCF (Restricted closed shell Kohn-Sham)     Authors: W. Meyer, H.-J. Werner, P.J. Knowles, 1993

 NUMBER OF ELECTRONS:       1+    1-
 CONVERGENCE THRESHOLDS:    1.00E-05 (Density)    1.00E-06 (Energy)
 MAX. NUMBER OF ITERATIONS:       60
 INTERPOLATION TYPE:            DIIS
 INTERPOLATION STEPS:              2 (START)      1 (STEP)
 LEVEL SHIFTS:                  0.00 (CLOSED)  0.00 (OPEN) 



 Use fine grid record 1800.2 for energy threshold 1.0D-06
 Molecular orbitals read from record     2100.2  Type=RKS/CANONICAL (state 1.1)

 Molecular orbital dump at record        2100.2

 ITERATION    DDIFF          GRAD             ENERGY        2-EL.EN.            DIPOLE MOMENTS         DIIS
    1      0.000D+00      0.000D+00        -0.92189124      1.765612    0.00000    0.00000    0.00000    0
    2      0.000D+00      0.915D-01        -0.98007151      1.534316    0.00000    0.00000    0.00000    1
    3      0.138D+00      0.469D-02        -0.98023529      1.543959    0.00000    0.00000    0.00000    2
    4      0.692D-02      0.723D-04        -0.98023533      1.544089    0.00000    0.00000    0.00000    3
    5      0.997D-04      0.170D-05        -0.98023533      1.544086    0.00000    0.00000    0.00000    3
    6      0.248D-05      0.511D-08        -0.98023533      1.544086    0.00000    0.00000    0.00000    0

 Final occupancy:   1   0   0   0   0   0   0

 !RKS STATE 1.1 Energy                 -0.980235327300
 Nuclear energy                         0.25316456
 One-electron energy                   -1.58227688
 Two-electron energy                    0.77204280
 SCF exchange energy                   -0.42891267     Factor=0.2000
 Density functional                    -0.42316581     B88=-0.48676490 DIRAC=-0.40830429 LYP=-0.03017555 VWN5=-0.08204501
 Virial quotient                       -1.21742374
 !RKS STATE 1.1 Dipole moment           0.00000000     0.00000000     0.00000000
 Dipole moment /Debye                   0.00000000     0.00000000     0.00000000

 Orbital energies:

         1.1          2.1          3.1
     -0.288224     0.752379     1.990219

         1.2
      1.997695

         1.3
      1.997695

         1.5          2.5
     -0.156146     0.802637

         1.6
      2.001957

         1.7
      2.001957


 **********************************************************************************************************************************
 DATASETS  * FILE   NREC   LENGTH (MB)   RECORD NAMES
              1      21        2.76       500      610      700      900      702      950      970     1000      129      960   
                                          VAR    BASINP    GEOM    SYMINP    GEOM     ZMAT    AOBASIS   BASIS     P2S    ABASIS    
                                         1100     1400     1410     1200     1210     1080     1600     1650     1300     1700   
                                           S        T        V       H0       H01     AOSYM     SMH    MOLCAS    ERIS     OPER   
                                         1800   
                                         GRID   

              2       6        0.49       700     1000     1800     2100      701      702   
                                         GEOM     BASIS    GRID      RKS     GEOM     GEOM   

 PROGRAMS   *        TOTAL       RKS       INT      OPTG       RKS       INT      OPTG       RKS       INT      OPTG       RKS
 CPU TIMES  *       125.57      0.02      0.09      6.74      0.00      0.08      6.16      0.02      0.05      4.80      0.03
 REAL TIME  *       142.09 SEC
 DISK USED  *         8.18 MB      
 **********************************************************************************************************************************


 PROGRAM * OPT (Geometry optimization)     Authors: F. Eckert and H.-J. Werner


 BFGS update of hessian

 Geometry optimization using default procedure for command RKS-SCF

 Inactive variables:    R1

 Active variables: 

 Geometry written to block  1 of record 702

 Making model hessian for cartesian coordinates

 Quadratic Steepest Descent - Minimum Search

 Optimization point  1

 Variable                      Last           Current        Next           Gradient       Hessian
 E(RKS-SCF000) / Hartree     0.00000000    -0.98023533     0.00000000
 HX1A / BOHR                 0.00000000     0.00000000     0.00000000     0.00000000     0.00000000
 HY1A / BOHR                 0.00000000     0.00000000     0.00000000     0.00000000     0.00000000
 HZ1A / BOHR                 0.00000000    -1.97500000    -1.65680202    -0.04540931     0.00000000
 HX2A / BOHR                 0.00000000     0.00000000     0.00000000     0.00000000     0.00000000
 HY2A / BOHR                 0.00000000     0.00000000     0.00000000     0.00000000     0.00000000
 HZ2A / BOHR                 0.00000000     1.97500000     1.65680202     0.04540931     0.00020000
 Convergence:                0.00000000  (line search)     0.44999991     0.06421846  (total)

 Optimization point  2

 Variable                      Last           Current        Next           Gradient       Hessian
 E(RKS-SCF000) / Hartree    -0.98023533    -1.01889436     0.00000000
 HX1A / BOHR                 0.00000000     0.00000000     0.00000000     0.00000000     0.00000000
 HY1A / BOHR                 0.00000000     0.00000000     0.00000000     0.00000000     0.00000000
 HZ1A / BOHR                -1.97500000    -1.65680202    -1.33860377    -0.07019432     0.00000000
 HX2A / BOHR                 0.00000000     0.00000000     0.00000000     0.00000000     0.00000000
 HY2A / BOHR                 0.00000000     0.00000000     0.00000000     0.00000000     0.00000000
 HZ2A / BOHR                 1.97500000     1.65680202     1.33860377     0.07019432     0.00020000
 Convergence:                0.00000000  (line search)     0.45000028     0.09926976  (total)

 Optimization point  3

 Variable                      Last           Current        Next           Gradient       Hessian
 E(RKS-SCF000) / Hartree    -1.01889436    -1.06991770     0.00000000
 HX1A / BOHR                 0.00000000     0.00000000     0.00000000     0.00000000     0.00000000
 HY1A / BOHR                 0.00000000     0.00000000     0.00000000     0.00000000     0.00000000
 HZ1A / BOHR                -1.65680202    -1.33860377    -0.91433945    -0.08979749     0.00000000
 HX2A / BOHR                 0.00000000     0.00000000     0.00000000     0.00000000     0.00000000
 HY2A / BOHR                 0.00000000     0.00000000     0.00000000     0.00000000     0.00000000
 HZ2A / BOHR                 1.65680202     1.33860377     0.91433945     0.08979749     0.00429501
 Convergence:                0.00000000  (line search)     0.60000035     0.12699283  (total)

 Optimization point  4

 Variable                      Last           Current        Next           Gradient       Hessian
 E(RKS-SCF000) / Hartree    -1.06991770    -1.14959288     0.00000000
 HX1A / BOHR                 0.00000000     0.00000000     0.00000000     0.00000000     0.00000000
 HY1A / BOHR                 0.00000000     0.00000000     0.00000000     0.00000000     0.00000000
 HZ1A / BOHR                -1.33860377    -0.91433945    -0.49007555    -0.08401186     0.00000000
 HX2A / BOHR                 0.00000000     0.00000000     0.00000000     0.00000000     0.00000000
 HY2A / BOHR                 0.00000000     0.00000000     0.00000000     0.00000000     0.00000000
 HZ2A / BOHR                 1.33860377     0.91433945     0.49007555     0.08401186     0.19653258
 Convergence:                0.00000000  (line search)     0.59999977     0.11881071  (total)

 Optimization point  5

 Variable                      Last           Current        Next           Gradient       Hessian
 E(RKS-SCF000) / Hartree    -1.14959288    -1.11278208     0.00000000
 HX1A / BOHR                 0.00000000     0.00000000     0.00000000     0.00000000     0.00000000
 HY1A / BOHR                 0.00000000     0.00000000     0.00000000     0.00000000     0.00000000
 HZ1A / BOHR                -0.91433945    -0.49007555    -0.83514168     0.36604119     0.00000000
 HX2A / BOHR                 0.00000000     0.00000000     0.00000000     0.00000000     0.00000000
 HY2A / BOHR                 0.00000000     0.00000000     0.00000000     0.00000000     0.00000000
 HZ2A / BOHR                 0.91433945     0.49007555     0.83514168    -0.36604119     2.13068454
 Convergence:                0.00000000  (line search)     0.48799720     0.51766042  (total)

 Optimization point  6

 Variable                      Last           Current        Next           Gradient       Hessian
 E(RKS-SCF000) / Hartree    -1.11278208    -1.16163211     0.00000000
 HX1A / BOHR                 0.00000000     0.00000000     0.00000000     0.00000000     0.00000000
 HY1A / BOHR                 0.00000000     0.00000000     0.00000000     0.00000000     0.00000000
 HZ1A / BOHR                -0.49007555    -0.83514168    -0.78230647    -0.06618007     0.00000000
 HX2A / BOHR                 0.00000000     0.00000000     0.00000000     0.00000000     0.00000000
 HY2A / BOHR                 0.00000000     0.00000000     0.00000000     0.00000000     0.00000000
 HZ2A / BOHR                 0.49007555     0.83514168     0.78230647     0.06618007     0.34208124
 Convergence:                0.00000000  (line search)     0.07472027     0.09359275  (total)

 Optimization point  7

 Variable                      Last           Current        Next           Gradient       Hessian
 E(RKS-SCF000) / Hartree    -1.16163211    -1.16767111     0.00000000
 HX1A / BOHR                 0.00000000     0.00000000     0.00000000     0.00000000     0.00000000
 HY1A / BOHR                 0.00000000     0.00000000     0.00000000     0.00000000     0.00000000
 HZ1A / BOHR                -0.83514168    -0.78230647    -0.65390407    -0.04688696     0.00000000
 HX2A / BOHR                 0.00000000     0.00000000     0.00000000     0.00000000     0.00000000
 HY2A / BOHR                 0.00000000     0.00000000     0.00000000     0.00000000     0.00000000
 HZ2A / BOHR                 0.83514168     0.78230647     0.65390407     0.04688696     0.48148789
 Convergence:                0.00000000  (line search)     0.18158842     0.06630817  (total)

 Optimization point  8

 Variable                      Last           Current        Next           Gradient       Hessian
 E(RKS-SCF000) / Hartree    -1.16767111    -1.16979707     0.00000000
 HX1A / BOHR                 0.00000000     0.00000000     0.00000000     0.00000000     0.00000000
 HY1A / BOHR                 0.00000000     0.00000000     0.00000000     0.00000000     0.00000000
 HZ1A / BOHR                -0.78230647    -0.65390407    -0.71556888     0.04332304     0.00000000
 HX2A / BOHR                 0.00000000     0.00000000     0.00000000     0.00000000     0.00000000
 HY2A / BOHR                 0.00000000     0.00000000     0.00000000     0.00000000     0.00000000
 HZ2A / BOHR                 0.78230647     0.65390407     0.71556888    -0.04332304     1.00680038
 Convergence:                0.00000000  (line search)     0.08720722     0.06126803  (total)

 Optimization point  9

 Variable                      Last           Current        Next           Gradient       Hessian
 E(RKS-SCF000) / Hartree    -1.16979707    -1.17163969     0.00000000
 HX1A / BOHR                 0.00000000     0.00000000     0.00000000     0.00000000     0.00000000
 HY1A / BOHR                 0.00000000     0.00000000     0.00000000     0.00000000     0.00000000
 HZ1A / BOHR                -0.65390407    -0.71556888    -0.70423420    -0.00975664     0.00000000
 HX2A / BOHR                 0.00000000     0.00000000     0.00000000     0.00000000     0.00000000
 HY2A / BOHR                 0.00000000     0.00000000     0.00000000     0.00000000     0.00000000
 HZ2A / BOHR                 0.65390407     0.71556888     0.70423420     0.00975664     0.71819381
 Convergence:                0.00000000  (line search)     0.01602967     0.01379798  (total)

 Optimization point 10

 Variable                      Last           Current        Next           Gradient       Hessian
 E(RKS-SCF000) / Hartree    -1.17163969    -1.17176991     0.00000000
 HX1A / BOHR                 0.00000000     0.00000000     0.00000000     0.00000000     0.00000000
 HY1A / BOHR                 0.00000000     0.00000000     0.00000000     0.00000000     0.00000000
 HZ1A / BOHR                -0.71556888    -0.70423420    -0.70205507    -0.00157327     0.00000000
 HX2A / BOHR                 0.00000000     0.00000000     0.00000000     0.00000000     0.00000000
 HY2A / BOHR                 0.00000000     0.00000000     0.00000000     0.00000000     0.00000000
 HZ2A / BOHR                 0.71556888     0.70423420     0.70205507     0.00157327     0.76594591
 Convergence:                0.00000000  (line search)     0.00308175     0.00222495  (total)

 Freezing grid

 Optimization point 11

 Variable                      Last           Current        Next           Gradient       Hessian
 E(RKS-SCF000) / Hartree    -1.17176991    -1.17177319     0.00000000
 HX1A / BOHR                 0.00000000     0.00000000     0.00000000     0.00000000     0.00000000
 HY1A / BOHR                 0.00000000     0.00000000     0.00000000     0.00000000     0.00000000
 HZ1A / BOHR                -0.70423420    -0.70205507    -0.70215003     0.00007168     0.00000000
 HX2A / BOHR                 0.00000000     0.00000000     0.00000000     0.00000000     0.00000000
 HY2A / BOHR                 0.00000000     0.00000000     0.00000000     0.00000000     0.00000000
 HZ2A / BOHR                 0.70423420     0.70205507     0.70215003    -0.00007168     0.77539259
 Convergence:                0.00000000  (line search)     0.00013429     0.00010137  (total)

 END OF GEOMETRY OPTIMIZATION.    TOTAL CPU:         7.3 SEC

 ITER.   ENERGY(OLD)    ENERGY(NEW)      DE          GRADMAX     GRADNORM    GRADRMS     STEPMAX     STEPLEN     STEPRMS
   1    -0.98023533    -1.01889436    -0.03865904  0.06421846  0.06421846  0.06421846  0.44999991  0.44999991  0.31819798
   2    -1.01889436    -1.06991770    -0.05102334  0.09926976  0.09926976  0.09926976  0.45000028  0.45000028  0.31819825
   3    -1.06991770    -1.14959288    -0.07967517  0.12699283  0.12699283  0.12699283  0.60000035  0.60000035  0.42426432
   4    -1.14959288    -1.11278208     0.03681080  0.11881071  0.11881071  0.11881071  0.59999977  0.59999977  0.42426390
   5    -1.11278208    -1.16163211    -0.04885003  0.51766042  0.51766042  0.51766042  0.48799720  0.48799720  0.34506613
   6    -1.16163211    -1.16767111    -0.00603901  0.09359275  0.09359275  0.09359275  0.07472027  0.07472027  0.05283521
   7    -1.16767111    -1.16979707    -0.00212596  0.06630817  0.06630817  0.06630817  0.18158842  0.18158842  0.12840241
   8    -1.16979707    -1.17163969    -0.00184262  0.06126803  0.06126803  0.06126803  0.08720722  0.08720722  0.06166481
   9    -1.17163969    -1.17176991    -0.00013022  0.01379798  0.01379798  0.01379798  0.01602967  0.01602967  0.01133469
  10    -1.17176991    -1.17177319    -0.00000328  0.00222495  0.00222495  0.00222495  0.00308175  0.00308175  0.00217912
  11    -1.17177319    -1.17177320    -0.00000001  0.00010137  0.00010137  0.00010137  0.00013429  0.00013429  0.00009496

 Geometry written to block  1 of record 702


 **********************************************************************************************************************************
 DATASETS  * FILE   NREC   LENGTH (MB)   RECORD NAMES
              1      21        2.76       500      610      700      900      702      950      970     1000      129      960   
                                          VAR    BASINP    GEOM    SYMINP    GEOM     ZMAT    AOBASIS   BASIS     P2S    ABASIS    
                                         1100     1400     1410     1200     1210     1080     1600     1650     1300     1700   
                                           S        T        V       H0       H01     AOSYM     SMH    MOLCAS    ERIS     OPER   
                                         1800   
                                         GRID   

              2       6        0.49       700     1000     1800     2100      701      702   
                                         GEOM     BASIS    GRID      RKS     GEOM     GEOM   

 PROGRAMS   *        TOTAL      OPTG       RKS       INT      OPTG       RKS       INT      OPTG       RKS       INT      OPTG
 CPU TIMES  *       132.92      7.35      0.02      0.09      6.74      0.00      0.08      6.16      0.02      0.05      4.80
 REAL TIME  *       149.89 SEC
 DISK USED  *         8.18 MB      
 **********************************************************************************************************************************
 SETTING VALUES(23)     =        -1.17177320  AU                              
 SETTING I              =        24.00000000                                  
 VALUES(1:23)     = [      -1.17177320    -1.17177320    -1.17177320    -1.17177320    -1.17177320    -1.17177320\\
                           -1.17177320    -1.17177320    -1.17177320    -1.17177320    -1.17177320    -1.17177320\\
                           -1.17177320    -1.17177324    -1.17177320    -1.17177320    -1.17177320    -1.17177320\\
                           -1.17177320    -1.17177320    -1.17177320    -1.17177320    -1.17177320] AU

       OPTG(RKS)        RKS-SCF        OPTG(RKS)        RKS-SCF        OPTG(RKS)        RKS-SCF        OPTG(RKS)        RKS-SCF 
     -1.17177320     -0.98023533     -1.17177320     -0.98831104     -1.17177320     -0.99700458     -1.17177320     -1.00634552
 **********************************************************************************************************************************
 Variable memory released
