 Entering Gaussian System, Link 0=/g100_work/pMI24_ChiCa/g09d1/g09d01/d01/build-node-6-2-59348/src/main/g09
 Input=geom.com
 Output=geom.log
 Initial command:
 /g100_work/pMI24_ChiCa/g09d1/g09d01/d01/build-node-6-2-59348/src/main/l1.exe "/g100_scratch/userexternal/fbuda000/g16_13359629/Gau-51137.inp" -scrdir="/g100_scratch/userexternal/fbuda000/g16_13359629/"
 Entering Link 1 = /g100_work/pMI24_ChiCa/g09d1/g09d01/d01/build-node-6-2-59348/src/main/l1.exe PID=     51138.
  
 Copyright (c) 1988,1990,1992,1993,1995,1998,2003,2009,2013,
            Gaussian, Inc.  All Rights Reserved.
  
 This is part of the Gaussian(R) 09 program.  It is based on
 the Gaussian(R) 03 system (copyright 2003, Gaussian, Inc.),
 the Gaussian(R) 98 system (copyright 1998, Gaussian, Inc.),
 the Gaussian(R) 94 system (copyright 1995, Gaussian, Inc.),
 the Gaussian 92(TM) system (copyright 1992, Gaussian, Inc.),
 the Gaussian 90(TM) system (copyright 1990, Gaussian, Inc.),
 the Gaussian 88(TM) system (copyright 1988, Gaussian, Inc.),
 the Gaussian 86(TM) system (copyright 1986, Carnegie Mellon
 University), and the Gaussian 82(TM) system (copyright 1983,
 Carnegie Mellon University). Gaussian is a federally registered
 trademark of Gaussian, Inc.
  
 This software contains proprietary and confidential information,
 including trade secrets, belonging to Gaussian, Inc.
  
 This software is provided under written license and may be
 used, copied, transmitted, or stored only in accord with that
 written license.
  
 The following legend is applicable only to US Government
 contracts under FAR:
  
                    RESTRICTED RIGHTS LEGEND
  
 Use, reproduction and disclosure by the US Government is
 subject to restrictions as set forth in subparagraphs (a)
 and (c) of the Commercial Computer Software - Restricted
 Rights clause in FAR 52.227-19.
  
 Gaussian, Inc.
 340 Quinnipiac St., Bldg. 40, Wallingford CT 06492
  
  
 ---------------------------------------------------------------
 Warning -- This program may not be used in any manner that
 competes with the business of Gaussian, Inc. or will provide
 assistance to any competitor of Gaussian, Inc.  The licensee
 of this program is prohibited from giving any competitor of
 Gaussian, Inc. access to this program.  By using this program,
 the user acknowledges that Gaussian, Inc. is engaged in the
 business of creating and licensing software in the field of
 computational chemistry and represents and warrants to the
 licensee that it is not a competitor of Gaussian, Inc. and that
 it will not use this program in any manner prohibited above.
 ---------------------------------------------------------------
  

 Cite this work as:
 Gaussian 09, Revision D.01,
 M. J. Frisch, G. W. Trucks, H. B. Schlegel, G. E. Scuseria, 
 M. A. Robb, J. R. Cheeseman, G. Scalmani, V. Barone, B. Mennucci, 
 G. A. Petersson, H. Nakatsuji, M. Caricato, X. Li, H. P. Hratchian, 
 A. F. Izmaylov, J. Bloino, G. Zheng, J. L. Sonnenberg, M. Hada, 
 M. Ehara, K. Toyota, R. Fukuda, J. Hasegawa, M. Ishida, T. Nakajima, 
 Y. Honda, O. Kitao, H. Nakai, T. Vreven, J. A. Montgomery, Jr., 
 J. E. Peralta, F. Ogliaro, M. Bearpark, J. J. Heyd, E. Brothers, 
 K. N. Kudin, V. N. Staroverov, T. Keith, R. Kobayashi, J. Normand, 
 K. Raghavachari, A. Rendell, J. C. Burant, S. S. Iyengar, J. Tomasi, 
 M. Cossi, N. Rega, J. M. Millam, M. Klene, J. E. Knox, J. B. Cross, 
 V. Bakken, C. Adamo, J. Jaramillo, R. Gomperts, R. E. Stratmann, 
 O. Yazyev, A. J. Austin, R. Cammi, C. Pomelli, J. W. Ochterski, 
 R. L. Martin, K. Morokuma, V. G. Zakrzewski, G. A. Voth, 
 P. Salvador, J. J. Dannenberg, S. Dapprich, A. D. Daniels, 
 O. Farkas, J. B. Foresman, J. V. Ortiz, J. Cioslowski, 
 and D. J. Fox, Gaussian, Inc., Wallingford CT, 2013.
 
 ******************************************
 Gaussian 09:  EM64L-G09RevD.01 24-Apr-2013
                13-May-2024 
 ******************************************
 ------------------------------------------------------
 #p B3LYP/6-31+g(d,p) opt(internal) nosym freq NMR=GIAO
 ------------------------------------------------------
 1/10=7,14=-1,18=40,26=3,38=1/1,3;
 2/12=2,15=1,17=6,18=5,29=3,40=1/2;
 3/5=1,6=6,7=111,11=2,16=1,25=1,30=1,71=1,74=-5/1,2,3;
 4//1;
 5/5=2,38=5/2;
 6/7=2,8=2,9=2,10=2,28=1/1;
 7/29=1,30=1/1,2,3,16;
 1/10=7,14=-1,18=40,26=3/3(2);
 2/15=1,29=3/2;
 99//99;
 2/15=1,29=3/2;
 3/5=1,6=6,7=111,11=2,16=1,25=1,30=1,71=1,74=-5/1,2,3;
 4/5=5,16=3,69=1/1;
 5/5=2,38=5/2;
 7/30=1/1,2,3,16;
 1/14=-1,18=40,26=3/3(-5);
 2/15=1,29=3/2;
 6/7=2,8=2,9=2,10=2,19=2,28=1/1;
 99/9=1/99;
 Leave Link    1 at Mon May 13 12:11:01 2024, MaxMem=           0 cpu:         0.0
 (Enter /g100_work/pMI24_ChiCa/g09d1/g09d01/d01/build-node-6-2-59348/src/main/l101.exe)
 ----------------
 tetrametilsilano
 ----------------
 Symbolic Z-matrix:
 Charge =  0 Multiplicity = 1
 si
 c                    1    csi2
 c                    1    csi3     2    csic3
 h                    2    hc4      1    hcsi4    3    dih4     0
 h                    2    hc5      1    hcsi5    4    dih5     0
 h                    2    hc6      1    hcsi6    4    dih6     0
 h                    3    hc7      1    hcsi7    2    dih7     0
 h                    3    hc8      1    hcsi8    7    dih8     0
 h                    3    hc9      1    hcsi9    7    dih9     0
 c                    1    csi10    3    csic10   2    dih10    0
 h                    10   hc11     1    hcsi11   3    dih11    0
 h                    10   hc12     1    hcsi12   11   dih12    0
 h                    10   hc13     1    hcsi13   11   dih13    0
 c                    1    csi14    10   csic14   3    dih14    0
 h                    14   hc15     1    hcsi15   10   dih15    0
 h                    14   hc16     1    hcsi16   15   dih16    0
 h                    14   hc17     1    hcsi17   15   dih17    0
       Variables:
  csi2                  1.85                     
  csi3                  1.85                     
  csic3               109.471                    
  hc4                   1.089                    
  hcsi4               109.471                    
  dih4                120.                       
  hc5                   1.089                    
  hcsi5               109.471                    
  dih5                120.                       
  hc6                   1.089                    
  hcsi6               109.471                    
  dih6                240.                       
  hc7                   1.089                    
  hcsi7               109.471                    
  dih7                180.                       
  hc8                   1.089                    
  hcsi8               109.471                    
  dih8                120.                       
  hc9                   1.089                    
  hcsi9               109.471                    
  dih9                240.                       
  csi10                 1.85                     
  csic10              109.471                    
  dih10               180.                       
  hc11                  1.089                    
  hcsi11              109.471                    
  dih11               180.                       
  hc12                  1.089                    
  hcsi12              109.471                    
  dih12               120.                       
  hc13                  1.089                    
  hcsi13              109.471                    
  dih13               240.                       
  csi14                 1.85                     
  csic14               95.                       
  dih14               115.                       
  hc15                  1.089                    
  hcsi15              109.471                    
  dih15               180.                       
  hc16                  1.089                    
  hcsi16              109.471                    
  dih16               120.                       
  hc17                  1.089                    
  hcsi17              109.471                    
  dih17               240.                       
 
    14 tetrahedral angles replaced.
 NAtoms=     17 NQM=       17 NQMF=       0 NMMI=      0 NMMIF=      0
                NMic=       0 NMicF=      0.
   14 tetrahedral angles replaced.
                    Isotopes and Nuclear Properties:
 (Nuclear quadrupole moments (NQMom) in fm**2, nuclear magnetic moments (NMagM)
  in nuclear magnetons)

  Atom         1           2           3           4           5           6           7           8           9          10
 IAtWgt=          28          12          12           1           1           1           1           1           1          12
 AtmWgt=  27.9769284  12.0000000  12.0000000   1.0078250   1.0078250   1.0078250   1.0078250   1.0078250   1.0078250  12.0000000
 NucSpn=           0           0           0           1           1           1           1           1           1           0
 AtZEff=   0.0000000   0.0000000   0.0000000   0.0000000   0.0000000   0.0000000   0.0000000   0.0000000   0.0000000   0.0000000
 NQMom=    0.0000000   0.0000000   0.0000000   0.0000000   0.0000000   0.0000000   0.0000000   0.0000000   0.0000000   0.0000000
 NMagM=    0.0000000   0.0000000   0.0000000   2.7928460   2.7928460   2.7928460   2.7928460   2.7928460   2.7928460   0.0000000
 AtZNuc=  14.0000000   6.0000000   6.0000000   1.0000000   1.0000000   1.0000000   1.0000000   1.0000000   1.0000000   6.0000000

  Atom        11          12          13          14          15          16          17
 IAtWgt=           1           1           1          12           1           1           1
 AtmWgt=   1.0078250   1.0078250   1.0078250  12.0000000   1.0078250   1.0078250   1.0078250
 NucSpn=           1           1           1           0           1           1           1
 AtZEff=   0.0000000   0.0000000   0.0000000   0.0000000   0.0000000   0.0000000   0.0000000
 NQMom=    0.0000000   0.0000000   0.0000000   0.0000000   0.0000000   0.0000000   0.0000000
 NMagM=    2.7928460   2.7928460   2.7928460   0.0000000   2.7928460   2.7928460   2.7928460
 AtZNuc=   1.0000000   1.0000000   1.0000000   6.0000000   1.0000000   1.0000000   1.0000000
 Leave Link  101 at Mon May 13 12:11:01 2024, MaxMem=    33554432 cpu:         0.1
 (Enter /g100_work/pMI24_ChiCa/g09d1/g09d01/d01/build-node-6-2-59348/src/main/l103.exe)

 GradGradGradGradGradGradGradGradGradGradGradGradGradGradGradGradGradGrad
 Berny optimization.
 Initialization pass.
                       ----------------------------
                       !    Initial Parameters    !
                       ! (Angstroms and Degrees)  !
 ----------------------                            ----------------------
 !      Name          Value   Derivative information (Atomic Units)     !
 ------------------------------------------------------------------------
 !      csi2         1.85     estimate D2E/DX2                          !
 !      csi3         1.85     estimate D2E/DX2                          !
 !      csic3      109.4712   estimate D2E/DX2                          !
 !       hc4         1.089    estimate D2E/DX2                          !
 !      hcsi4      109.4712   estimate D2E/DX2                          !
 !      dih4       120.0      estimate D2E/DX2                          !
 !       hc5         1.089    estimate D2E/DX2                          !
 !      hcsi5      109.4712   estimate D2E/DX2                          !
 !      dih5       120.0      estimate D2E/DX2                          !
 !       hc6         1.089    estimate D2E/DX2                          !
 !      hcsi6      109.4712   estimate D2E/DX2                          !
 !      dih6       240.0      estimate D2E/DX2                          !
 !       hc7         1.089    estimate D2E/DX2                          !
 !      hcsi7      109.4712   estimate D2E/DX2                          !
 !      dih7       180.0      estimate D2E/DX2                          !
 !       hc8         1.089    estimate D2E/DX2                          !
 !      hcsi8      109.4712   estimate D2E/DX2                          !
 !      dih8       120.0      estimate D2E/DX2                          !
 !       hc9         1.089    estimate D2E/DX2                          !
 !      hcsi9      109.4712   estimate D2E/DX2                          !
 !      dih9       240.0      estimate D2E/DX2                          !
 !      csi10        1.85     estimate D2E/DX2                          !
 !     csic10      109.4712   estimate D2E/DX2                          !
 !      dih10      180.0      estimate D2E/DX2                          !
 !      hc11         1.089    estimate D2E/DX2                          !
 !     hcsi11      109.4712   estimate D2E/DX2                          !
 !      dih11      180.0      estimate D2E/DX2                          !
 !      hc12         1.089    estimate D2E/DX2                          !
 !     hcsi12      109.4712   estimate D2E/DX2                          !
 !      dih12      120.0      estimate D2E/DX2                          !
 !      hc13         1.089    estimate D2E/DX2                          !
 !     hcsi13      109.4712   estimate D2E/DX2                          !
 !      dih13      240.0      estimate D2E/DX2                          !
 !      csi14        1.85     estimate D2E/DX2                          !
 !     csic14       95.0      estimate D2E/DX2                          !
 !      dih14      115.0      estimate D2E/DX2                          !
 !      hc15         1.089    estimate D2E/DX2                          !
 !     hcsi15      109.4712   estimate D2E/DX2                          !
 !      dih15      180.0      estimate D2E/DX2                          !
 !      hc16         1.089    estimate D2E/DX2                          !
 !     hcsi16      109.4712   estimate D2E/DX2                          !
 !      dih16      120.0      estimate D2E/DX2                          !
 !      hc17         1.089    estimate D2E/DX2                          !
 !     hcsi17      109.4712   estimate D2E/DX2                          !
 !      dih17      240.0      estimate D2E/DX2                          !
 ------------------------------------------------------------------------
 Trust Radius=3.00D-01 FncErr=1.00D-07 GrdErr=1.00D-06
 Number of steps in this run=     55 maximum allowed number of steps=    100.
 GradGradGradGradGradGradGradGradGradGradGradGradGradGradGradGradGradGrad

 Leave Link  103 at Mon May 13 12:11:01 2024, MaxMem=    33554432 cpu:         0.0
 (Enter /g100_work/pMI24_ChiCa/g09d1/g09d01/d01/build-node-6-2-59348/src/main/l202.exe)
 ---------------------------------------------------------------------------------------------------
                            Z-MATRIX (ANGSTROMS AND DEGREES)
   CD    Cent   Atom    N1       Length/X        N2       Alpha/Y        N3        Beta/Z          J
 ---------------------------------------------------------------------------------------------------
      1      1  Si
      2      2  C        1   1.850000(     1)
      3      3  C        1   1.850000(     2)      2  109.471(    17)
      4      4  H        2   1.089000(     3)      1  109.471(    18)      3  120.000(    32)      0
      5      5  H        2   1.089000(     4)      1  109.471(    19)      4  120.000(    33)      0
      6      6  H        2   1.089000(     5)      1  109.471(    20)      4  240.000(    34)      0
      7      7  H        3   1.089000(     6)      1  109.471(    21)      2  180.000(    35)      0
      8      8  H        3   1.089000(     7)      1  109.471(    22)      7  120.000(    36)      0
      9      9  H        3   1.089000(     8)      1  109.471(    23)      7  240.000(    37)      0
     10     10  C        1   1.850000(     9)      3  109.471(    24)      2  180.000(    38)      0
     11     11  H       10   1.089000(    10)      1  109.471(    25)      3  180.000(    39)      0
     12     12  H       10   1.089000(    11)      1  109.471(    26)     11  120.000(    40)      0
     13     13  H       10   1.089000(    12)      1  109.471(    27)     11  240.000(    41)      0
     14     14  C        1   1.850000(    13)     10   95.000(    28)      3  115.000(    42)      0
     15     15  H       14   1.089000(    14)      1  109.471(    29)     10  180.000(    43)      0
     16     16  H       14   1.089000(    15)      1  109.471(    30)     15  120.000(    44)      0
     17     17  H       14   1.089000(    16)      1  109.471(    31)     15  240.000(    45)      0
 ---------------------------------------------------------------------------------------------------
                         Z-Matrix orientation:                         
 ---------------------------------------------------------------------
 Center     Atomic      Atomic             Coordinates (Angstroms)
 Number     Number       Type             X           Y           Z
 ---------------------------------------------------------------------
      1         14           0        0.000000    0.000000    0.000000
      2          6           0        0.000000    0.000000    1.850000
      3          6           0        1.744197    0.000000   -0.616667
      4          1           0       -0.513360    0.889165    2.213000
      5          1           0       -0.513360   -0.889165    2.213000
      6          1           0        1.026719   -0.000000    2.213000
      7          1           0        1.744197   -0.000000   -1.705667
      8          1           0        2.257556    0.889165   -0.253667
      9          1           0        2.257556   -0.889165   -0.253667
     10          6           0       -1.162798    0.000000   -1.438889
     11          1           0       -2.189517    0.000000   -1.075889
     12          1           0       -0.991678    0.889165   -2.043889
     13          1           0       -0.991678   -0.889165   -2.043889
     14          6           0       -0.504442    1.670289    0.614957
     15          1           0        0.068870    1.916927    1.507372
     16          1           0       -0.312790    2.414354   -0.156767
     17          1           0       -1.566345    1.662800    0.856259
 ---------------------------------------------------------------------
                    Distance matrix (angstroms):
                    1          2          3          4          5
     1  Si   0.000000
     2  C    1.850000   0.000000
     3  C    1.850000   3.021037   0.000000
     4  H    2.439574   1.089000   3.727491   0.000000
     5  H    2.439574   1.089000   3.727491   1.778330   0.000000
     6  H    2.439574   1.089000   2.919210   1.778330   1.778330
     7  H    2.439574   3.960428   1.089000   4.609026   4.609026
     8  H    2.439574   3.211322   1.089000   3.709773   4.113985
     9  H    2.439574   3.211322   1.089000   4.113985   3.709773
    10  C    1.850000   3.488393   3.021037   3.814273   3.814273
    11  H    2.439574   3.654423   3.960428   3.796960   3.796960
    12  H    2.439574   4.115387   3.211322   4.283677   4.638141
    13  H    2.439574   4.115387   3.211322   4.638141   4.283677
    14  C    1.850000   2.137676   3.059925   1.778757   3.017387
    15  H    2.439574   1.948524   3.315550   1.375934   2.951449
    16  H    2.439574   3.155005   3.204967   2.825283   4.070536
    17  H    2.439574   2.491157   3.986741   1.883623   3.076044
                    6          7          8          9         10
     6  H    0.000000
     7  H    3.983808   0.000000
     8  H    2.896553   1.778330   0.000000
     9  H    2.896553   1.778330   1.778330   0.000000
    10  C    4.257966   2.919210   3.727491   3.727491   0.000000
    11  H    4.600105   3.983808   4.609026   4.609026   1.089000
    12  H    4.794335   2.896553   3.709773   4.113985   1.089000
    13  H    4.794335   2.896553   4.113985   3.709773   1.089000
    14  C    2.772735   3.637518   2.998883   3.864447   2.727926
    15  H    2.256101   4.099384   2.991304   3.970611   3.724522
    16  H    3.638569   3.529787   2.990363   4.186802   2.862771
    17  H    3.365952   4.504226   4.056189   4.729343   2.862771
                   11         12         13         14         15
    11  H    0.000000
    12  H    1.778330   0.000000
    13  H    1.778330   1.778330   0.000000
    14  C    2.913469   2.813719   3.722588   0.000000
    15  H    3.930414   3.846103   4.648695   1.089000   0.000000
    16  H    3.193117   2.519588   3.864629   1.089000   1.778330
    17  H    2.624203   3.056078   3.905589   1.089000   1.778330
                   16         17
    16  H    0.000000
    17  H    1.778330   0.000000
 Symmetry turned off by external request.
 Stoichiometry    C4H12Si
 Framework group  C1[X(C4H12Si)]
 Deg. of freedom    45
 Full point group                 C1      NOp   1
 Rotational constants (GHZ):      4.2207241      3.5230565      2.6196921
 Leave Link  202 at Mon May 13 12:11:01 2024, MaxMem=    33554432 cpu:         0.0
 (Enter /g100_work/pMI24_ChiCa/g09d1/g09d01/d01/build-node-6-2-59348/src/main/l301.exe)
 Standard basis: 6-31+G(d,p) (6D, 7F)
 Ernie: Thresh=  0.10000D-02 Tol=  0.10000D-05 Strict=F.
   159 basis functions,   268 primitive gaussians,   159 cartesian basis functions
    25 alpha electrons       25 beta electrons
       nuclear repulsion energy       254.9619481603 Hartrees.
 IExCor=  402 DFT=T Ex+Corr=B3LYP ExCW=0 ScaHFX=  0.200000
 ScaDFX=  0.800000  0.720000  1.000000  0.810000 ScalE2=  1.000000  1.000000
 IRadAn=      0 IRanWt=     -1 IRanGd=            0 ICorTp=0 IEmpDi=  4
 NAtoms=   17 NActive=   17 NUniq=   17 SFac= 1.00D+00 NAtFMM=   60 NAOKFM=F Big=F
 Integral buffers will be    131072 words long.
 Raffenetti 2 integral format.
 Two-electron integral symmetry is turned off.
 Leave Link  301 at Mon May 13 12:11:02 2024, MaxMem=    33554432 cpu:         0.0
 (Enter /g100_work/pMI24_ChiCa/g09d1/g09d01/d01/build-node-6-2-59348/src/main/l302.exe)
 NPDir=0 NMtPBC=     1 NCelOv=     1 NCel=       1 NClECP=     1 NCelD=      1
         NCelK=      1 NCelE2=     1 NClLst=     1 CellRange=     0.0.
 One-electron integrals computed using PRISM.
 NBasis=   159 RedAO= T EigKep=  2.77D-04  NBF=   159
 NBsUse=   159 1.00D-06 EigRej= -1.00D+00 NBFU=   159
 Precomputing XC quadrature grid using
 IXCGrd= 4 IRadAn=           0 IRanWt=          -1 IRanGd=           0 AccXCQ= 0.00D+00.
 Generated NRdTot=       0 NPtTot=           0 NUsed=           0 NTot=          32
 NSgBfM=   159   159   159   159   159 MxSgAt=    17 MxSgA2=    17.
 Leave Link  302 at Mon May 13 12:11:02 2024, MaxMem=    33554432 cpu:         0.2
 (Enter /g100_work/pMI24_ChiCa/g09d1/g09d01/d01/build-node-6-2-59348/src/main/l303.exe)
 DipDrv:  MaxL=1.
 Leave Link  303 at Mon May 13 12:11:02 2024, MaxMem=    33554432 cpu:         0.0
 (Enter /g100_work/pMI24_ChiCa/g09d1/g09d01/d01/build-node-6-2-59348/src/main/l401.exe)
 ExpMin= 3.31D-02 ExpMax= 1.61D+04 ExpMxC= 2.43D+03 IAcc=3 IRadAn=         5 AccDes= 0.00D+00
 Harris functional with IExCor=  402 and IRadAn=       5 diagonalized for initial guess.
 HarFok:  IExCor=  402 AccDes= 0.00D+00 IRadAn=         5 IDoV= 1 UseB2=F ITyADJ=14
 ICtDFT=  3500011 ScaDFX=  1.000000  1.000000  1.000000  1.000000
 FoFCou: FMM=F IPFlag=           0 FMFlag=      100000 FMFlg1=           0
         NFxFlg=           0 DoJE=T BraDBF=F KetDBF=T FulRan=T
         wScrn=  0.000000 ICntrl=     500 IOpCl=  0 I1Cent=   200000004 NGrid=           0
         NMat0=    1 NMatS0=      1 NMatT0=    0 NMatD0=    1 NMtDS0=    0 NMtDT0=    0
 Symmetry not used in FoFCou.
 Harris En= -449.194036042737    
 JPrj=0 DoOrth=F DoCkMO=F.
 Leave Link  401 at Mon May 13 12:11:06 2024, MaxMem=    33554432 cpu:         3.5
 (Enter /g100_work/pMI24_ChiCa/g09d1/g09d01/d01/build-node-6-2-59348/src/main/l502.exe)
 Closed shell SCF:
 Using DIIS extrapolation, IDIIS=  1040.
 Two-electron integral symmetry not used.
 IVT=       96335 IEndB=       96335 NGot=    33554432 MDV=    33500178
 LenX=    33500178 LenY=    33474456
 Requested convergence on RMS density matrix=1.00D-08 within 128 cycles.
 Requested convergence on MAX density matrix=1.00D-06.
 Requested convergence on             energy=1.00D-06.
 No special actions if energy rises.
 Fock matrices will be formed incrementally for  20 cycles.

 Cycle   1  Pass 1  IDiag  1:
 FoFJK:  IHMeth= 1 ICntrl=       0 DoSepK=F KAlg= 0 I1Cent=   0 FoldK=F
 IRaf= 980000000 NMat=   1 IRICut=       1 DoRegI=T DoRafI=F ISym2E= 0.
 FoFCou: FMM=F IPFlag=           0 FMFlag=      100000 FMFlg1=           0
         NFxFlg=           0 DoJE=F BraDBF=F KetDBF=F FulRan=T
         wScrn=  0.000000 ICntrl=       0 IOpCl=  0 I1Cent=           0 NGrid=           0
         NMat0=    1 NMatS0=      1 NMatT0=    0 NMatD0=    1 NMtDS0=    0 NMtDT0=    0
 Symmetry not used in FoFCou.
 E= -448.649811425989    
 DIIS: error= 3.61D-02 at cycle   1 NSaved=   1.
 NSaved= 1 IEnMin= 1 EnMin= -448.649811425989     IErMin= 1 ErrMin= 3.61D-02
 ErrMax= 3.61D-02  0.00D+00 EMaxC= 1.00D-01 BMatC= 3.95D-01 BMatP= 3.95D-01
 IDIUse=3 WtCom= 6.39D-01 WtEn= 3.61D-01
 Coeff-Com:  0.100D+01
 Coeff-En:   0.100D+01
 Coeff:      0.100D+01
 Gap=     0.033 Goal=   None    Shift=    0.000
 GapD=    0.033 DampG=0.250 DampE=0.500 DampFc=0.2500 IDamp=-1.
 Damping current iteration by 2.50D-01
 RMSDP=1.68D-02 MaxDP=5.72D-01              OVMax= 5.26D-01

 Cycle   2  Pass 1  IDiag  1:
 RMSU=  4.17D-03    CP:  9.83D-01
 E= -448.808518876543     Delta-E=       -0.158707450554 Rises=F Damp=T
 DIIS: error= 1.57D-02 at cycle   2 NSaved=   2.
 NSaved= 2 IEnMin= 2 EnMin= -448.808518876543     IErMin= 2 ErrMin= 1.57D-02
 ErrMax= 1.57D-02  0.00D+00 EMaxC= 1.00D-01 BMatC= 7.33D-02 BMatP= 3.95D-01
 IDIUse=3 WtCom= 8.43D-01 WtEn= 1.57D-01
 Coeff-Com: -0.680D+00 0.168D+01
 Coeff-En:   0.000D+00 0.100D+01
 Coeff:     -0.574D+00 0.157D+01
 Gap=     0.179 Goal=   None    Shift=    0.000
 RMSDP=3.54D-03 MaxDP=1.46D-01 DE=-1.59D-01 OVMax= 3.90D-01

 Cycle   3  Pass 1  IDiag  1:
 RMSU=  3.25D-03    CP:  9.70D-01  6.75D-01
 E= -449.062024484574     Delta-E=       -0.253505608031 Rises=F Damp=F
 DIIS: error= 4.61D-03 at cycle   3 NSaved=   3.
 NSaved= 3 IEnMin= 3 EnMin= -449.062024484574     IErMin= 3 ErrMin= 4.61D-03
 ErrMax= 4.61D-03  0.00D+00 EMaxC= 1.00D-01 BMatC= 9.59D-03 BMatP= 7.33D-02
 IDIUse=3 WtCom= 9.54D-01 WtEn= 4.61D-02
 Coeff-Com: -0.294D+00 0.774D+00 0.520D+00
 Coeff-En:   0.000D+00 0.000D+00 0.100D+01
 Coeff:     -0.280D+00 0.738D+00 0.542D+00
 Gap=     0.182 Goal=   None    Shift=    0.000
 RMSDP=1.13D-03 MaxDP=2.75D-02 DE=-2.54D-01 OVMax= 2.95D-02

 Cycle   4  Pass 1  IDiag  1:
 RMSU=  1.08D-03    CP:  9.69D-01  6.91D-01  8.97D-01
 E= -449.071932693822     Delta-E=       -0.009908209248 Rises=F Damp=F
 DIIS: error= 1.65D-03 at cycle   4 NSaved=   4.
 NSaved= 4 IEnMin= 4 EnMin= -449.071932693822     IErMin= 4 ErrMin= 1.65D-03
 ErrMax= 1.65D-03  0.00D+00 EMaxC= 1.00D-01 BMatC= 7.29D-04 BMatP= 9.59D-03
 IDIUse=3 WtCom= 9.83D-01 WtEn= 1.65D-02
 Coeff-Com: -0.201D-01 0.566D-01 0.209D+00 0.755D+00
 Coeff-En:   0.000D+00 0.000D+00 0.000D+00 0.100D+01
 Coeff:     -0.197D-01 0.557D-01 0.205D+00 0.759D+00
 Gap=     0.185 Goal=   None    Shift=    0.000
 RMSDP=3.07D-04 MaxDP=5.60D-03 DE=-9.91D-03 OVMax= 6.91D-03

 Cycle   5  Pass 1  IDiag  1:
 RMSU=  2.77D-04    CP:  9.68D-01  6.70D-01  9.25D-01  1.00D+00
 E= -449.072586777547     Delta-E=       -0.000654083725 Rises=F Damp=F
 DIIS: error= 5.41D-04 at cycle   5 NSaved=   5.
 NSaved= 5 IEnMin= 5 EnMin= -449.072586777547     IErMin= 5 ErrMin= 5.41D-04
 ErrMax= 5.41D-04  0.00D+00 EMaxC= 1.00D-01 BMatC= 8.60D-05 BMatP= 7.29D-04
 IDIUse=3 WtCom= 9.95D-01 WtEn= 5.41D-03
 Coeff-Com:  0.786D-02-0.171D-01 0.598D-01 0.338D+00 0.611D+00
 Coeff-En:   0.000D+00 0.000D+00 0.000D+00 0.112D-01 0.989D+00
 Coeff:      0.782D-02-0.170D-01 0.595D-01 0.336D+00 0.613D+00
 Gap=     0.185 Goal=   None    Shift=    0.000
 RMSDP=1.22D-04 MaxDP=2.85D-03 DE=-6.54D-04 OVMax= 3.13D-03

 Cycle   6  Pass 1  IDiag  1:
 RMSU=  9.19D-05    CP:  9.69D-01  6.63D-01  9.24D-01  9.93D-01  7.38D-01
 E= -449.072678377696     Delta-E=       -0.000091600148 Rises=F Damp=F
 DIIS: error= 7.74D-05 at cycle   6 NSaved=   6.
 NSaved= 6 IEnMin= 6 EnMin= -449.072678377696     IErMin= 6 ErrMin= 7.74D-05
 ErrMax= 7.74D-05  0.00D+00 EMaxC= 1.00D-01 BMatC= 3.89D-06 BMatP= 8.60D-05
 IDIUse=1 WtCom= 1.00D+00 WtEn= 0.00D+00
 Coeff-Com:  0.424D-02-0.846D-02 0.224D-01 0.120D+00 0.271D+00 0.591D+00
 Coeff:      0.424D-02-0.846D-02 0.224D-01 0.120D+00 0.271D+00 0.591D+00
 Gap=     0.186 Goal=   None    Shift=    0.000
 RMSDP=2.55D-05 MaxDP=5.53D-04 DE=-9.16D-05 OVMax= 9.26D-04

 Cycle   7  Pass 1  IDiag  1:
 RMSU=  1.75D-05    CP:  9.69D-01  6.60D-01  9.25D-01  9.85D-01  7.68D-01
                    CP:  9.10D-01
 E= -449.072682729097     Delta-E=       -0.000004351401 Rises=F Damp=F
 DIIS: error= 2.69D-05 at cycle   7 NSaved=   7.
 NSaved= 7 IEnMin= 7 EnMin= -449.072682729097     IErMin= 7 ErrMin= 2.69D-05
 ErrMax= 2.69D-05  0.00D+00 EMaxC= 1.00D-01 BMatC= 3.50D-07 BMatP= 3.89D-06
 IDIUse=1 WtCom= 1.00D+00 WtEn= 0.00D+00
 Coeff-Com:  0.102D-02-0.164D-02 0.543D-02 0.219D-01 0.639D-01 0.275D+00
 Coeff-Com:  0.634D+00
 Coeff:      0.102D-02-0.164D-02 0.543D-02 0.219D-01 0.639D-01 0.275D+00
 Coeff:      0.634D+00
 Gap=     0.186 Goal=   None    Shift=    0.000
 RMSDP=6.23D-06 MaxDP=1.38D-04 DE=-4.35D-06 OVMax= 2.12D-04

 Cycle   8  Pass 1  IDiag  1:
 RMSU=  4.35D-06    CP:  9.69D-01  6.59D-01  9.25D-01  9.85D-01  7.76D-01
                    CP:  9.31D-01  9.24D-01
 E= -449.072683091280     Delta-E=       -0.000000362183 Rises=F Damp=F
 DIIS: error= 5.06D-06 at cycle   8 NSaved=   8.
 NSaved= 8 IEnMin= 8 EnMin= -449.072683091280     IErMin= 8 ErrMin= 5.06D-06
 ErrMax= 5.06D-06  0.00D+00 EMaxC= 1.00D-01 BMatC= 1.33D-08 BMatP= 3.50D-07
 IDIUse=1 WtCom= 1.00D+00 WtEn= 0.00D+00
 Coeff-Com: -0.208D-04 0.712D-04 0.201D-03-0.248D-03 0.251D-02 0.499D-01
 Coeff-Com:  0.199D+00 0.748D+00
 Coeff:     -0.208D-04 0.712D-04 0.201D-03-0.248D-03 0.251D-02 0.499D-01
 Coeff:      0.199D+00 0.748D+00
 Gap=     0.186 Goal=   None    Shift=    0.000
 RMSDP=2.11D-06 MaxDP=5.93D-05 DE=-3.62D-07 OVMax= 4.52D-05

 Cycle   9  Pass 1  IDiag  1:
 RMSU=  1.36D-06    CP:  9.69D-01  6.59D-01  9.25D-01  9.85D-01  7.76D-01
                    CP:  9.45D-01  9.17D-01  8.46D-01
 E= -449.072683105562     Delta-E=       -0.000000014282 Rises=F Damp=F
 DIIS: error= 2.31D-06 at cycle   9 NSaved=   9.
 NSaved= 9 IEnMin= 9 EnMin= -449.072683105562     IErMin= 9 ErrMin= 2.31D-06
 ErrMax= 2.31D-06  0.00D+00 EMaxC= 1.00D-01 BMatC= 2.07D-09 BMatP= 1.33D-08
 IDIUse=1 WtCom= 1.00D+00 WtEn= 0.00D+00
 Coeff-Com: -0.122D-03 0.199D-03-0.379D-03-0.158D-02-0.335D-02 0.172D-02
 Coeff-Com:  0.374D-01 0.321D+00 0.645D+00
 Coeff:     -0.122D-03 0.199D-03-0.379D-03-0.158D-02-0.335D-02 0.172D-02
 Coeff:      0.374D-01 0.321D+00 0.645D+00
 Gap=     0.186 Goal=   None    Shift=    0.000
 RMSDP=6.32D-07 MaxDP=1.79D-05 DE=-1.43D-08 OVMax= 1.58D-05

 Cycle  10  Pass 1  IDiag  1:
 RMSU=  2.92D-07    CP:  9.69D-01  6.59D-01  9.25D-01  9.86D-01  7.76D-01
                    CP:  9.47D-01  9.30D-01  8.97D-01  8.04D-01
 E= -449.072683107924     Delta-E=       -0.000000002362 Rises=F Damp=F
 DIIS: error= 5.51D-07 at cycle  10 NSaved=  10.
 NSaved=10 IEnMin=10 EnMin= -449.072683107924     IErMin=10 ErrMin= 5.51D-07
 ErrMax= 5.51D-07  0.00D+00 EMaxC= 1.00D-01 BMatC= 1.38D-10 BMatP= 2.07D-09
 IDIUse=1 WtCom= 1.00D+00 WtEn= 0.00D+00
 Coeff-Com: -0.645D-04 0.983D-04-0.209D-03-0.715D-03-0.151D-02-0.522D-03
 Coeff-Com:  0.111D-01 0.113D+00 0.276D+00 0.603D+00
 Coeff:     -0.645D-04 0.983D-04-0.209D-03-0.715D-03-0.151D-02-0.522D-03
 Coeff:      0.111D-01 0.113D+00 0.276D+00 0.603D+00
 Gap=     0.186 Goal=   None    Shift=    0.000
 RMSDP=1.20D-07 MaxDP=2.51D-06 DE=-2.36D-09 OVMax= 2.88D-06

 Cycle  11  Pass 1  IDiag  1:
 RMSU=  6.96D-08    CP:  9.69D-01  6.59D-01  9.25D-01  9.86D-01  7.76D-01
                    CP:  9.47D-01  9.32D-01  9.01D-01  8.27D-01  9.04D-01
 E= -449.072683108070     Delta-E=       -0.000000000146 Rises=F Damp=F
 DIIS: error= 1.94D-07 at cycle  11 NSaved=  11.
 NSaved=11 IEnMin=11 EnMin= -449.072683108070     IErMin=11 ErrMin= 1.94D-07
 ErrMax= 1.94D-07  0.00D+00 EMaxC= 1.00D-01 BMatC= 1.66D-11 BMatP= 1.38D-10
 IDIUse=1 WtCom= 1.00D+00 WtEn= 0.00D+00
 Coeff-Com: -0.159D-04 0.204D-04-0.581D-04-0.120D-03-0.190D-03-0.157D-03
 Coeff-Com:  0.775D-03 0.590D-02 0.305D-01 0.225D+00 0.738D+00
 Coeff:     -0.159D-04 0.204D-04-0.581D-04-0.120D-03-0.190D-03-0.157D-03
 Coeff:      0.775D-03 0.590D-02 0.305D-01 0.225D+00 0.738D+00
 Gap=     0.186 Goal=   None    Shift=    0.000
 RMSDP=6.53D-08 MaxDP=1.92D-06 DE=-1.46D-10 OVMax= 1.25D-06

 Cycle  12  Pass 1  IDiag  1:
 RMSU=  2.56D-08    CP:  9.69D-01  6.59D-01  9.25D-01  9.86D-01  7.76D-01
                    CP:  9.48D-01  9.32D-01  9.03D-01  8.40D-01  9.61D-01
                    CP:  1.01D+00
 E= -449.072683108086     Delta-E=       -0.000000000016 Rises=F Damp=F
 DIIS: error= 5.57D-08 at cycle  12 NSaved=  12.
 NSaved=12 IEnMin=12 EnMin= -449.072683108086     IErMin=12 ErrMin= 5.57D-08
 ErrMax= 5.57D-08  0.00D+00 EMaxC= 1.00D-01 BMatC= 1.10D-12 BMatP= 1.66D-11
 IDIUse=1 WtCom= 1.00D+00 WtEn= 0.00D+00
 Coeff-Com: -0.273D-05 0.288D-05-0.103D-04-0.733D-06 0.396D-04 0.553D-04
 Coeff-Com: -0.386D-03-0.707D-02-0.101D-01 0.337D-01 0.298D+00 0.686D+00
 Coeff:     -0.273D-05 0.288D-05-0.103D-04-0.733D-06 0.396D-04 0.553D-04
 Coeff:     -0.386D-03-0.707D-02-0.101D-01 0.337D-01 0.298D+00 0.686D+00
 Gap=     0.186 Goal=   None    Shift=    0.000
 RMSDP=2.01D-08 MaxDP=6.76D-07 DE=-1.59D-11 OVMax= 3.96D-07

 Cycle  13  Pass 1  IDiag  1:
 RMSU=  7.70D-09    CP:  9.69D-01  6.59D-01  9.25D-01  9.86D-01  7.76D-01
                    CP:  9.48D-01  9.32D-01  9.03D-01  8.43D-01  9.88D-01
                    CP:  1.03D+00  7.97D-01
 E= -449.072683108078     Delta-E=        0.000000000008 Rises=F Damp=F
 DIIS: error= 8.82D-09 at cycle  13 NSaved=  13.
 NSaved=13 IEnMin=12 EnMin= -449.072683108086     IErMin=13 ErrMin= 8.82D-09
 ErrMax= 8.82D-09  0.00D+00 EMaxC= 1.00D-01 BMatC= 3.58D-14 BMatP= 1.10D-12
 IDIUse=1 WtCom= 1.00D+00 WtEn= 0.00D+00
 Coeff-Com: -0.527D-08-0.125D-06 0.740D-07 0.572D-05 0.194D-04 0.289D-04
 Coeff-Com: -0.181D-03-0.246D-02-0.421D-02-0.646D-02 0.301D-01 0.175D+00
 Coeff-Com:  0.809D+00
 Coeff:     -0.527D-08-0.125D-06 0.740D-07 0.572D-05 0.194D-04 0.289D-04
 Coeff:     -0.181D-03-0.246D-02-0.421D-02-0.646D-02 0.301D-01 0.175D+00
 Coeff:      0.809D+00
 Gap=     0.186 Goal=   None    Shift=    0.000
 RMSDP=3.67D-09 MaxDP=1.00D-07 DE= 7.50D-12 OVMax= 6.96D-08

 SCF Done:  E(RB3LYP) =  -449.072683108     A.U. after   13 cycles
            NFock= 13  Conv=0.37D-08     -V/T= 2.0044
 KE= 4.471194025778D+02 PE=-1.567601130334D+03 EE= 4.164470964878D+02
 Leave Link  502 at Mon May 13 12:12:01 2024, MaxMem=    33554432 cpu:        34.3
 (Enter /g100_work/pMI24_ChiCa/g09d1/g09d01/d01/build-node-6-2-59348/src/main/l601.exe)
 Copying SCF densities to generalized density rwf, IOpCl= 0 IROHF=0.

 **********************************************************************

            Population analysis using the SCF density.

 **********************************************************************

 Alpha  occ. eigenvalues --  -66.10481 -10.17468 -10.16230 -10.15514 -10.13199
 Alpha  occ. eigenvalues --   -5.25596  -3.61579  -3.61402  -3.61300  -0.75714
 Alpha  occ. eigenvalues --   -0.70487  -0.68754  -0.63687  -0.47380  -0.44348
 Alpha  occ. eigenvalues --   -0.43242  -0.42327  -0.41566  -0.40254  -0.39051
 Alpha  occ. eigenvalues --   -0.36940  -0.33177  -0.31260  -0.29429  -0.21705
 Alpha virt. eigenvalues --   -0.03128   0.00725   0.01522   0.01646   0.03767
 Alpha virt. eigenvalues --    0.05689   0.06087   0.06204   0.06444   0.06626
 Alpha virt. eigenvalues --    0.08134   0.09310   0.09854   0.10418   0.10583
 Alpha virt. eigenvalues --    0.11329   0.13207   0.13448   0.14292   0.14529
 Alpha virt. eigenvalues --    0.15759   0.16218   0.16949   0.18175   0.18652
 Alpha virt. eigenvalues --    0.20496   0.21979   0.24756   0.26751   0.27500
 Alpha virt. eigenvalues --    0.29402   0.31011   0.32956   0.33630   0.36328
 Alpha virt. eigenvalues --    0.37800   0.42679   0.45360   0.45525   0.47337
 Alpha virt. eigenvalues --    0.54559   0.63253   0.64204   0.66928   0.69252
 Alpha virt. eigenvalues --    0.70384   0.71255   0.73826   0.75651   0.77988
 Alpha virt. eigenvalues --    0.79098   0.80376   0.83777   0.87586   0.90306
 Alpha virt. eigenvalues --    0.91380   0.94143   0.96343   0.97901   0.98196
 Alpha virt. eigenvalues --    0.98938   0.99473   1.00403   1.01646   1.04548
 Alpha virt. eigenvalues --    1.14044   1.15899   1.16448   1.19006   1.25754
 Alpha virt. eigenvalues --    1.29510   1.35346   1.37991   1.45506   1.47767
 Alpha virt. eigenvalues --    1.49414   1.53307   1.57746   1.67140   1.72763
 Alpha virt. eigenvalues --    1.90111   1.93422   2.03005   2.03842   2.05000
 Alpha virt. eigenvalues --    2.08056   2.08451   2.10364   2.11479   2.11994
 Alpha virt. eigenvalues --    2.12681   2.15671   2.17516   2.21903   2.24177
 Alpha virt. eigenvalues --    2.25397   2.28369   2.34041   2.35767   2.37335
 Alpha virt. eigenvalues --    2.39100   2.43695   2.46481   2.47078   2.50524
 Alpha virt. eigenvalues --    2.62524   2.66006   2.66442   2.72867   2.77269
 Alpha virt. eigenvalues --    2.82327   2.84161   2.84859   2.85964   2.86487
 Alpha virt. eigenvalues --    2.97368   3.07864   3.17517   3.24781   3.25657
 Alpha virt. eigenvalues --    3.26449   3.29711   3.43079   3.43220   3.44291
 Alpha virt. eigenvalues --    3.44860   3.45417   3.46246   3.50448   3.51752
 Alpha virt. eigenvalues --    4.45006   4.48369   4.52243   4.65537
          Condensed to atoms (all electrons):
               1          2          3          4          5          6
     1  Si  12.603713   0.280236   0.194129  -0.062746  -0.073126  -0.036153
     2  C    0.280236   5.884692  -0.071724   0.544089   0.332169   0.381877
     3  C    0.194129  -0.071724   5.425310   0.001466   0.005657   0.002014
     4  H   -0.062746   0.544089   0.001466   0.596222  -0.038272  -0.029241
     5  H   -0.073126   0.332169   0.005657  -0.038272   0.587011  -0.014803
     6  H   -0.036153   0.381877   0.002014  -0.029241  -0.014803   0.511031
     7  H   -0.056230   0.011118   0.412312  -0.000030  -0.000026   0.000089
     8  H   -0.039448   0.001577   0.407073   0.000134  -0.000001  -0.000404
     9  H   -0.043006  -0.007574   0.403433  -0.000023   0.000223   0.000048
    10  C    0.264216   0.005334  -0.031355  -0.000500  -0.005344   0.001043
    11  H   -0.050396  -0.006424   0.009234   0.000000   0.000047  -0.000006
    12  H   -0.023918   0.005362  -0.006624   0.000052  -0.000030  -0.000014
    13  H   -0.058297  -0.001184  -0.001415  -0.000035   0.000043   0.000010
    14  C    0.248611  -0.609953  -0.002685  -0.146018   0.067718   0.014477
    15  H   -0.036852  -0.109576   0.004660  -0.028079   0.005068  -0.000215
    16  H   -0.048963   0.072870  -0.007479   0.008539  -0.000577  -0.000659
    17  H   -0.040998  -0.034073   0.008280  -0.002824  -0.000839   0.001285
               7          8          9         10         11         12
     1  Si  -0.056230  -0.039448  -0.043006   0.264216  -0.050396  -0.023918
     2  C    0.011118   0.001577  -0.007574   0.005334  -0.006424   0.005362
     3  C    0.412312   0.407073   0.403433  -0.031355   0.009234  -0.006624
     4  H   -0.000030   0.000134  -0.000023  -0.000500   0.000000   0.000052
     5  H   -0.000026  -0.000001   0.000223  -0.005344   0.000047  -0.000030
     6  H    0.000089  -0.000404   0.000048   0.001043  -0.000006  -0.000014
     7  H    0.523216  -0.020533  -0.024096  -0.002055   0.000064  -0.000032
     8  H   -0.020533   0.499360  -0.023280   0.004194  -0.000028   0.000061
     9  H   -0.024096  -0.023280   0.524006   0.000301  -0.000024   0.000035
    10  C   -0.002055   0.004194   0.000301   5.343752   0.413055   0.418233
    11  H    0.000064  -0.000028  -0.000024   0.413055   0.516656  -0.021628
    12  H   -0.000032   0.000061   0.000035   0.418233  -0.021628   0.497493
    13  H   -0.000334  -0.000006   0.000152   0.397928  -0.022403  -0.027965
    14  C   -0.002180  -0.005610   0.009217  -0.108179  -0.003367  -0.027256
    15  H    0.000021   0.000321   0.000052   0.007191   0.000029   0.000135
    16  H    0.000174   0.000346  -0.000005   0.000112  -0.000037   0.003648
    17  H   -0.000000   0.000045  -0.000027  -0.000757   0.000402   0.000042
              13         14         15         16         17
     1  Si  -0.058297   0.248611  -0.036852  -0.048963  -0.040998
     2  C   -0.001184  -0.609953  -0.109576   0.072870  -0.034073
     3  C   -0.001415  -0.002685   0.004660  -0.007479   0.008280
     4  H   -0.000035  -0.146018  -0.028079   0.008539  -0.002824
     5  H    0.000043   0.067718   0.005068  -0.000577  -0.000839
     6  H    0.000010   0.014477  -0.000215  -0.000659   0.001285
     7  H   -0.000334  -0.002180   0.000021   0.000174  -0.000000
     8  H   -0.000006  -0.005610   0.000321   0.000346   0.000045
     9  H    0.000152   0.009217   0.000052  -0.000005  -0.000027
    10  C    0.397928  -0.108179   0.007191   0.000112  -0.000757
    11  H   -0.022403  -0.003367   0.000029  -0.000037   0.000402
    12  H   -0.027965  -0.027256   0.000135   0.003648   0.000042
    13  H    0.538527   0.017497  -0.000070  -0.000074   0.000104
    14  C    0.017497   6.044318   0.474396   0.312908   0.429525
    15  H   -0.000070   0.474396   0.608341  -0.035440  -0.026366
    16  H   -0.000074   0.312908  -0.035440   0.603288  -0.023886
    17  H    0.000104   0.429525  -0.026366  -0.023886   0.531246
 Mulliken charges:
               1
     1  Si   0.979226
     2  C   -0.678818
     3  C   -0.752287
     4  H    0.157266
     5  H    0.135081
     6  H    0.169620
     7  H    0.158522
     8  H    0.176199
     9  H    0.160566
    10  C   -0.707171
    11  H    0.164825
    12  H    0.182408
    13  H    0.157521
    14  C   -0.713420
    15  H    0.136384
    16  H    0.115237
    17  H    0.158840
 Sum of Mulliken charges =  -0.00000
 Mulliken charges with hydrogens summed into heavy atoms:
               1
     1  Si   0.979226
     2  C   -0.216850
     3  C   -0.257001
    10  C   -0.202417
    14  C   -0.302958
 Electronic spatial extent (au):  <R**2>=            645.8901
 Charge=             -0.0000 electrons
 Dipole moment (field-independent basis, Debye):
    X=             -0.0213    Y=             -1.0819    Z=             -0.5004  Tot=              1.1923
 Quadrupole moment (field-independent basis, Debye-Ang):
   XX=            -42.4802   YY=            -44.9493   ZZ=            -43.7430
   XY=              0.7297   XZ=              0.3601   YZ=              0.4188
 Traceless Quadrupole moment (field-independent basis, Debye-Ang):
   XX=              1.2440   YY=             -1.2252   ZZ=             -0.0188
   XY=              0.7297   XZ=              0.3601   YZ=              0.4188
 Octapole moment (field-independent basis, Debye-Ang**2):
  XXX=             -6.0099  YYY=            -53.4273  ZZZ=            -17.2167  XYY=              2.4391
  XXY=            -13.6087  XXZ=              0.6590  XZZ=              1.6083  YZZ=            -10.0352
  YYZ=             -5.5913  XYZ=              0.6049
 Hexadecapole moment (field-independent basis, Debye-Ang**3):
 XXXX=           -326.5371 YYYY=           -264.5238 ZZZZ=           -423.9170 XXXY=             22.3970
 XXXZ=             -3.6036 YYYX=             29.9555 YYYZ=            -29.7478 ZZZX=             -8.2992
 ZZZY=            -19.4040 XXYY=            -92.1519 XXZZ=           -124.3844 YYZZ=           -104.0947
 XXYZ=             -8.6591 YYXZ=             -1.2956 ZZXY=              6.9302
 N-N= 2.549619481603D+02 E-N=-1.567601130525D+03  KE= 4.471194025778D+02
 No NMR shielding tensors so no spin-rotation constants.
 Leave Link  601 at Mon May 13 12:12:02 2024, MaxMem=    33554432 cpu:         0.1
 (Enter /g100_work/pMI24_ChiCa/g09d1/g09d01/d01/build-node-6-2-59348/src/main/l701.exe)
 Compute integral first derivatives.
 ... and contract with generalized density number  0.
 Leave Link  701 at Mon May 13 12:12:02 2024, MaxMem=    33554432 cpu:         0.1
 (Enter /g100_work/pMI24_ChiCa/g09d1/g09d01/d01/build-node-6-2-59348/src/main/l702.exe)
 L702 exits ... SP integral derivatives will be done elsewhere.
 Leave Link  702 at Mon May 13 12:12:02 2024, MaxMem=    33554432 cpu:         0.0
 (Enter /g100_work/pMI24_ChiCa/g09d1/g09d01/d01/build-node-6-2-59348/src/main/l703.exe)
 Compute integral first derivatives, UseDBF=F ICtDFT=           0.
 Integral derivatives from FoFJK, PRISM(SPDF).
 Calling FoFJK, ICntrl=      2127 FMM=F ISym2X=0 I1Cent= 0 IOpClX= 0 NMat=1 NMatS=1 NMatT=0.
 FoFJK:  IHMeth= 1 ICntrl=    2127 DoSepK=F KAlg= 0 I1Cent=   0 FoldK=F
 IRaf=         0 NMat=   1 IRICut=       1 DoRegI=T DoRafI=F ISym2E= 0.
 FoFCou: FMM=F IPFlag=           0 FMFlag=      100000 FMFlg1=         800
         NFxFlg=           0 DoJE=F BraDBF=F KetDBF=F FulRan=T
         wScrn=  0.000000 ICntrl=    2127 IOpCl=  0 I1Cent=           0 NGrid=           0
         NMat0=    1 NMatS0=      1 NMatT0=    0 NMatD0=    1 NMtDS0=    0 NMtDT0=    0
 Symmetry not used in FoFCou.
 Leave Link  703 at Mon May 13 12:12:11 2024, MaxMem=    33554432 cpu:         8.8
 (Enter /g100_work/pMI24_ChiCa/g09d1/g09d01/d01/build-node-6-2-59348/src/main/l716.exe)
 Dipole        =-8.38439574D-03-4.25671838D-01-1.96871763D-01
 -------------------------------------------------------------------
 Center     Atomic                   Forces (Hartrees/Bohr)
 Number     Number              X              Y              Z
 -------------------------------------------------------------------
      1       14           0.010641317    0.047128726    0.005378876
      2        6          -0.018420549   -0.091863174    0.055906722
      3        6           0.004223002   -0.006587320   -0.004428380
      4        1          -0.000501404   -0.037174092    0.021945237
      5        1           0.004200520   -0.010219045    0.020093566
      6        1           0.004257049   -0.002247023    0.000633566
      7        1           0.004904115   -0.000170914   -0.003786243
      8        1           0.003724196    0.001714408    0.001003374
      9        1           0.007383154   -0.002092045   -0.001671963
     10        6          -0.013919203   -0.033526063   -0.001784593
     11        1          -0.005543330   -0.000138136   -0.004334101
     12        1           0.003802893    0.003215125    0.002281611
     13        1          -0.006280123   -0.001996727   -0.008473257
     14        6           0.011316080    0.083654339   -0.052832116
     15        1           0.001373548    0.029476414   -0.022655165
     16        1          -0.007659081    0.019351345   -0.007312804
     17        1          -0.003502185    0.001474183    0.000035670
 -------------------------------------------------------------------
 Cartesian Forces:  Max     0.091863174 RMS     0.024333061
 -----------------------------------------------------------------------------------------------
                       Internal Coordinate Forces (Hartree/Bohr or radian)
  Cent   Atom   N1       Length/X         N2         Alpha/Y        N3         Beta/Z          J
 -----------------------------------------------------------------------------------------------
      1  Si
      2  C        1   0.098579(     1)
      3  C        1   0.022038(     2)      2  -0.008862(    17)
      4  H        2  -0.022801(     3)      1   0.064491(    18)      3   0.049517(    32)     0
      5  H        2   0.013062(     4)      1   0.034356(    19)      4   0.016972(    33)     0
      6  H        2   0.004225(     5)      1  -0.001691(    20)      4  -0.004360(    34)     0
      7  H        3   0.003786(     6)      1   0.010092(    21)      2   0.002224(    35)     0
      8  H        3   0.003490(     7)      1   0.004395(    22)      7   0.002012(    36)     0
      9  H        3   0.004631(     8)      1   0.013041(    23)      7   0.000543(    37)     0
     10  C        1   0.023365(     9)      3  -0.012737(    24)      2   0.487865(    38)     0
     11  H       10   0.003782(    10)      1   0.012212(    25)      3   0.000369(    39)     0
     12  H       10   0.001955(    11)      1  -0.010513(    26)     11  -0.000559(    40)     0
     13  H       10   0.005351(    12)      1   0.019108(    27)     11   0.001196(    41)     0
     14  C        1   0.093015(    13)     10  -0.290990(    28)      3  -0.356314(    42)     0
     15  H       14  -0.011167(    14)      1   0.048959(    29)     10   0.062388(    43)     0
     16  H       14   0.017056(    15)      1   0.024979(    30)     15   0.013494(    44)     0
     17  H       14   0.003413(    16)      1   0.002532(    31)     15  -0.002194(    45)     0
 -----------------------------------------------------------------------------------------------
 Internal  Forces:  Max     0.487865389 RMS     0.103993008
 Leave Link  716 at Mon May 13 12:12:11 2024, MaxMem=    33554432 cpu:         0.0
 (Enter /g100_work/pMI24_ChiCa/g09d1/g09d01/d01/build-node-6-2-59348/src/main/l103.exe)

 GradGradGradGradGradGradGradGradGradGradGradGradGradGradGradGradGradGrad
 Berny optimization.
 Search for a local minimum.
 Step number   1 out of a maximum of   55
 All quantities printed in internal units (Hartrees-Bohrs-Radians)
 Second derivative matrix not updated -- first step.
 ITU=  0
     Eigenvalues ---    0.05042   0.06158   0.06262   0.06331   0.10106
     Eigenvalues ---    0.14338   0.14338   0.14338   0.14338   0.14557
     Eigenvalues ---    0.15356   0.15974   0.22543   0.22543   0.22543
     Eigenvalues ---    0.22543   0.22864   0.24563   0.25186   0.25469
     Eigenvalues ---    0.27978   0.31509   0.32454   0.32454   0.32454
     Eigenvalues ---    0.32454   0.34928   0.34928   0.34928   0.34928
     Eigenvalues ---    0.34928   0.34928   0.34928   0.34928   0.34928
     Eigenvalues ---    0.34928   0.34928   0.34928   0.42246   0.42246
     Eigenvalues ---    0.42246   0.42246   0.42556   0.71197   1.06287
 RFO step:  Lambda=-4.45613941D-01 EMin= 5.04163780D-02
 Linear search not attempted -- first point.
 Maximum step size (   0.300) exceeded in Quadratic search.
    -- Step size scaled by   0.451
 Variable       Old X    -DE/DX   Delta X   Delta X   Delta X     New X
                                 (Linear)    (Quad)   (Total)
   csi2       3.49599   0.09858   0.00000   0.06633   0.06633   3.56232
   csi3       3.49599   0.02204   0.00000   0.01483   0.01483   3.51082
  csic3       1.91063  -0.00886   0.00000   0.01210   0.01210   1.92273
   hc4        2.05791  -0.02280   0.00000  -0.01295  -0.01295   2.04496
  hcsi4       1.91063   0.06449   0.00000   0.04321   0.04321   1.95384
   dih4       2.09440   0.04952   0.00000   0.05681   0.05681   2.15120
   hc5        2.05791   0.01306   0.00000   0.00742   0.00742   2.06533
  hcsi5       1.91063   0.03436   0.00000   0.02031   0.02031   1.93094
   dih5       2.09440   0.01697   0.00000   0.01713   0.01713   2.11153
   hc6        2.05791   0.00422   0.00000   0.00240   0.00240   2.06031
  hcsi6       1.91063  -0.00169   0.00000  -0.00656  -0.00656   1.90407
   dih6       4.18879  -0.00436   0.00000  -0.00055  -0.00055   4.18824
   hc7        2.05791   0.00379   0.00000   0.00215   0.00215   2.06006
  hcsi7       1.91063   0.01009   0.00000   0.00612   0.00612   1.91675
   dih7       3.14159   0.00222   0.00000  -0.03692  -0.03692   3.10468
   hc8        2.05791   0.00349   0.00000   0.00198   0.00198   2.05989
  hcsi8       1.91063   0.00439   0.00000   0.00101   0.00101   1.91165
   dih8       2.09440   0.00201   0.00000  -0.00920  -0.00920   2.08520
   hc9        2.05791   0.00463   0.00000   0.00263   0.00263   2.06054
  hcsi9       1.91063   0.01304   0.00000   0.00901   0.00901   1.91964
   dih9       4.18879   0.00054   0.00000  -0.01019  -0.01019   4.17860
  csi10       3.49599   0.02336   0.00000   0.01572   0.01572   3.51171
  csic10      1.91063  -0.01274   0.00000   0.00871   0.00871   1.91935
  dih10       3.14159   0.48787   0.00000   0.19087   0.19087   3.33246
   hc11       2.05791   0.00378   0.00000   0.00215   0.00215   2.06006
  hcsi11      1.91063   0.01221   0.00000   0.00774   0.00774   1.91838
  dih11       3.14159   0.00037   0.00000  -0.00909  -0.00909   3.13250
   hc12       2.05791   0.00196   0.00000   0.00111   0.00111   2.05902
  hcsi12      1.91063  -0.01051   0.00000  -0.00846  -0.00846   1.90217
  dih12       2.09440  -0.00056   0.00000  -0.00348  -0.00348   2.09092
   hc13       2.05791   0.00535   0.00000   0.00304   0.00304   2.06095
  hcsi13      1.91063   0.01911   0.00000   0.01292   0.01292   1.92355
  dih13       4.18879   0.00120   0.00000  -0.00338  -0.00338   4.18541
  csi14       3.49599   0.09302   0.00000   0.06258   0.06258   3.55858
  csic14      1.65806  -0.29099   0.00000  -0.09500  -0.09500   1.56306
  dih14       2.00713  -0.35631   0.00000  -0.15376  -0.15376   1.85337
   hc15       2.05791  -0.01117   0.00000  -0.00634  -0.00634   2.05157
  hcsi15      1.91063   0.04896   0.00000   0.03267   0.03267   1.94331
  dih15       3.14159   0.06239   0.00000   0.04716   0.04716   3.18876
   hc16       2.05791   0.01706   0.00000   0.00969   0.00969   2.06760
  hcsi16      1.91063   0.02498   0.00000   0.01403   0.01403   1.92467
  dih16       2.09440   0.01349   0.00000   0.00771   0.00771   2.10210
   hc17       2.05791   0.00341   0.00000   0.00194   0.00194   2.05985
  hcsi17      1.91063   0.00253   0.00000  -0.00188  -0.00188   1.90876
  dih17       4.18879  -0.00219   0.00000  -0.00535  -0.00535   4.18345
         Item               Value     Threshold  Converged?
 Maximum Force            0.487865     0.000450     NO 
 RMS     Force            0.103993     0.000300     NO 
 Maximum Displacement     0.190871     0.001800     NO 
 RMS     Displacement     0.044721     0.001200     NO 
 Predicted change in Energy=-1.758261D-01
 Lowest energy point so far.  Saving SCF results.
 GradGradGradGradGradGradGradGradGradGradGradGradGradGradGradGradGradGrad

 Leave Link  103 at Mon May 13 12:12:11 2024, MaxMem=    33554432 cpu:         0.0
 (Enter /g100_work/pMI24_ChiCa/g09d1/g09d01/d01/build-node-6-2-59348/src/main/l202.exe)
 ---------------------------------------------------------------------------------------------------
                            Z-MATRIX (ANGSTROMS AND DEGREES)
   CD    Cent   Atom    N1       Length/X        N2       Alpha/Y        N3        Beta/Z          J
 ---------------------------------------------------------------------------------------------------
      1      1  Si
      2      2  C        1   1.885098(     1)
      3      3  C        1   1.857847(     2)      2  110.164(    17)
      4      4  H        2   1.082147(     3)      1  111.947(    18)      3  123.255(    32)      0
      5      5  H        2   1.092926(     4)      1  110.635(    19)      4  120.982(    33)      0
      6      6  H        2   1.090270(     5)      1  109.095(    20)      4  239.968(    34)      0
      7      7  H        3   1.090138(     6)      1  109.822(    21)      2  177.885(    35)      0
      8      8  H        3   1.090049(     7)      1  109.529(    22)      7  119.473(    36)      0
      9      9  H        3   1.090392(     8)      1  109.987(    23)      7  239.416(    37)      0
     10     10  C        1   1.858319(     9)      3  109.971(    24)      2  190.936(    38)      0
     11     11  H       10   1.090137(    10)      1  109.915(    25)      3  179.479(    39)      0
     12     12  H       10   1.089588(    11)      1  108.986(    26)     11  119.801(    40)      0
     13     13  H       10   1.090608(    12)      1  110.211(    27)     11  239.806(    41)      0
     14     14  C        1   1.883117(    13)     10   89.557(    28)      3  106.190(    42)      0
     15     15  H       14   1.085644(    14)      1  111.343(    29)     10  182.702(    43)      0
     16     16  H       14   1.094127(    15)      1  110.275(    30)     15  120.441(    44)      0
     17     17  H       14   1.090026(    16)      1  109.364(    31)     15  239.694(    45)      0
 ---------------------------------------------------------------------------------------------------
                         Z-Matrix orientation:                         
 ---------------------------------------------------------------------
 Center     Atomic      Atomic             Coordinates (Angstroms)
 Number     Number       Type             X           Y           Z
 ---------------------------------------------------------------------
      1         14           0        0.000000    0.000000    0.000000
      2          6           0        0.000000    0.000000    1.885098
      3          6           0        1.743976    0.000000   -0.640424
      4          1           0       -0.550405    0.839355    2.289546
      5          1           0       -0.444575   -0.921137    2.270256
      6          1           0        1.028648    0.057927    2.241772
      7          1           0        1.737701   -0.037851   -1.729886
      8          1           0        2.248775    0.912435   -0.322860
      9          1           0        2.284664   -0.862320   -0.249253
     10          6           0       -1.186916   -0.331349   -1.390966
     11          1           0       -2.209236   -0.340303   -1.012573
     12          1           0       -1.085779    0.455153   -2.138218
     13          1           0       -0.969261   -1.296310   -1.850208
     14          6           0       -0.530096    1.806965    0.002434
     15          1           0        0.035859    2.383797    0.727405
     16          1           0       -0.376978    2.248343   -0.986936
     17          1           0       -1.589495    1.872486    0.250499
 ---------------------------------------------------------------------
                    Distance matrix (angstroms):
                    1          2          3          4          5
     1  Si   0.000000
     2  C    1.885098   0.000000
     3  C    1.857847   3.069155   0.000000
     4  H    2.499897   1.082147   3.814895   0.000000
     5  H    2.490021   1.092926   3.756368   1.763776   0.000000
     6  H    2.467188   1.090270   2.970202   1.762476   1.769114
     7  H    2.452253   4.011128   1.090138   4.707521   4.641515
     8  H    2.448217   3.280946   1.090049   3.829545   4.164177
     9  H    2.454672   3.243261   1.090392   4.168791   3.714852
    10  C    1.858319   3.500166   3.043556   3.914315   3.781992
    11  H    2.453942   3.659649   3.985246   3.879085   3.772050
    12  H    2.440913   4.192035   3.233893   4.476531   4.662613
    13  H    2.458284   4.070922   3.241243   4.676973   4.170644
    14  C    1.883117   2.662809   2.974860   2.483458   3.548644
    15  H    2.492567   2.650288   3.235909   2.273607   3.678831
    16  H    2.484191   3.666843   3.110235   3.570806   4.545270
    17  H    2.468897   2.950359   3.925809   2.510932   3.632436
                    6          7          8          9         10
     6  H    0.000000
     7  H    4.035592   0.000000
     8  H    2.965844   1.773123   0.000000
     9  H    2.937625   1.780784   1.776643   0.000000
    10  C    4.272827   2.958783   3.806813   3.692873   0.000000
    11  H    4.607954   4.022974   4.681764   4.588060   1.090137
    12  H    4.879847   2.895138   3.824118   4.082133   1.089588
    13  H    4.750779   2.987615   4.191313   3.652319   1.090608
    14  C    3.240903   3.398115   2.937367   3.887326   2.635406
    15  H    2.947645   3.846937   2.857440   4.067956   3.654407
    16  H    4.147079   3.201645   3.019972   4.159897   2.733872
    17  H    3.756657   4.317586   3.997845   4.768441   2.777295
                   11         12         13         14         15
    11  H    0.000000
    12  H    1.778196   0.000000
    13  H    1.775702   1.778806   0.000000
    14  C    2.908696   2.592020   3.640806   0.000000
    15  H    3.935568   3.631739   4.604079   1.085644   0.000000
    16  H    3.171579   2.245747   3.696026   1.094127   1.768544
    17  H    2.622187   2.822859   3.852134   1.090026   1.769365
                   16         17
    16  H    0.000000
    17  H    1.772770   0.000000
 Symmetry turned off by external request.
 Stoichiometry    C4H12Si
 Framework group  C1[X(C4H12Si)]
 Deg. of freedom    45
 Full point group                 C1      NOp   1
 Rotational constants (GHZ):      3.8340257      3.3024059      2.7118828
 Leave Link  202 at Mon May 13 12:12:12 2024, MaxMem=    33554432 cpu:         0.0
 (Enter /g100_work/pMI24_ChiCa/g09d1/g09d01/d01/build-node-6-2-59348/src/main/l301.exe)
 Standard basis: 6-31+G(d,p) (6D, 7F)
 Ernie: Thresh=  0.10000D-02 Tol=  0.10000D-05 Strict=F.
   159 basis functions,   268 primitive gaussians,   159 cartesian basis functions
    25 alpha electrons       25 beta electrons
       nuclear repulsion energy       250.2036194062 Hartrees.
 IExCor=  402 DFT=T Ex+Corr=B3LYP ExCW=0 ScaHFX=  0.200000
 ScaDFX=  0.800000  0.720000  1.000000  0.810000 ScalE2=  1.000000  1.000000
 IRadAn=      0 IRanWt=     -1 IRanGd=            0 ICorTp=0 IEmpDi=  4
 NAtoms=   17 NActive=   17 NUniq=   17 SFac= 1.00D+00 NAtFMM=   60 NAOKFM=F Big=F
 Integral buffers will be    131072 words long.
 Raffenetti 2 integral format.
 Two-electron integral symmetry is turned off.
 Leave Link  301 at Mon May 13 12:12:12 2024, MaxMem=    33554432 cpu:         0.0
 (Enter /g100_work/pMI24_ChiCa/g09d1/g09d01/d01/build-node-6-2-59348/src/main/l302.exe)
 NPDir=0 NMtPBC=     1 NCelOv=     1 NCel=       1 NClECP=     1 NCelD=      1
         NCelK=      1 NCelE2=     1 NClLst=     1 CellRange=     0.0.
 One-electron integrals computed using PRISM.
 NBasis=   159 RedAO= T EigKep=  2.43D-04  NBF=   159
 NBsUse=   159 1.00D-06 EigRej= -1.00D+00 NBFU=   159
 Precomputing XC quadrature grid using
 IXCGrd= 4 IRadAn=           0 IRanWt=          -1 IRanGd=           0 AccXCQ= 0.00D+00.
 Generated NRdTot=       0 NPtTot=           0 NUsed=           0 NTot=          32
 NSgBfM=   159   159   159   159   159 MxSgAt=    17 MxSgA2=    17.
 Leave Link  302 at Mon May 13 12:12:12 2024, MaxMem=    33554432 cpu:         0.2
 (Enter /g100_work/pMI24_ChiCa/g09d1/g09d01/d01/build-node-6-2-59348/src/main/l303.exe)
 DipDrv:  MaxL=1.
 Leave Link  303 at Mon May 13 12:12:12 2024, MaxMem=    33554432 cpu:         0.0
 (Enter /g100_work/pMI24_ChiCa/g09d1/g09d01/d01/build-node-6-2-59348/src/main/l401.exe)
 Initial guess from the checkpoint file:  "/g100_scratch/userexternal/fbuda000/g16_13359629/Gau-51138.chk"
 B after Tr=     0.006893   -0.086535   -0.101052
         Rot=    0.996550    0.080606    0.001073   -0.019733 Ang=   9.52 deg.
 Guess basis will be translated and rotated to current coordinates.
 JPrj=2 DoOrth=T DoCkMO=T.
 Generating alternative initial guess.
 ExpMin= 3.31D-02 ExpMax= 1.61D+04 ExpMxC= 2.43D+03 IAcc=3 IRadAn=         5 AccDes= 0.00D+00
 Harris functional with IExCor=  402 and IRadAn=       5 diagonalized for initial guess.
 HarFok:  IExCor=  402 AccDes= 0.00D+00 IRadAn=         5 IDoV= 1 UseB2=F ITyADJ=14
 ICtDFT=  3500011 ScaDFX=  1.000000  1.000000  1.000000  1.000000
 FoFCou: FMM=F IPFlag=           0 FMFlag=      100000 FMFlg1=           0
         NFxFlg=           0 DoJE=T BraDBF=F KetDBF=T FulRan=T
         wScrn=  0.000000 ICntrl=     500 IOpCl=  0 I1Cent=   200000004 NGrid=           0
         NMat0=    1 NMatS0=      1 NMatT0=    0 NMatD0=    1 NMtDS0=    0 NMtDT0=    0
 Symmetry not used in FoFCou.
 Harris En= -449.279176281333    
 Leave Link  401 at Mon May 13 12:12:16 2024, MaxMem=    33554432 cpu:         3.6
 (Enter /g100_work/pMI24_ChiCa/g09d1/g09d01/d01/build-node-6-2-59348/src/main/l502.exe)
 Closed shell SCF:
 Using DIIS extrapolation, IDIIS=  1040.
 Two-electron integral symmetry not used.
 IVT=       96335 IEndB=       96335 NGot=    33554432 MDV=    33500178
 LenX=    33500178 LenY=    33474456
 Requested convergence on RMS density matrix=1.00D-08 within 128 cycles.
 Requested convergence on MAX density matrix=1.00D-06.
 Requested convergence on             energy=1.00D-06.
 No special actions if energy rises.
 Fock matrices will be formed incrementally for  20 cycles.

 Cycle   1  Pass 1  IDiag  1:
 FoFJK:  IHMeth= 1 ICntrl=       0 DoSepK=F KAlg= 0 I1Cent=   0 FoldK=F
 IRaf= 980000000 NMat=   1 IRICut=       1 DoRegI=T DoRafI=F ISym2E= 0.
 FoFCou: FMM=F IPFlag=           0 FMFlag=      100000 FMFlg1=           0
         NFxFlg=           0 DoJE=F BraDBF=F KetDBF=F FulRan=T
         wScrn=  0.000000 ICntrl=       0 IOpCl=  0 I1Cent=           0 NGrid=           0
         NMat0=    1 NMatS0=      1 NMatT0=    0 NMatD0=    1 NMtDS0=    0 NMtDT0=    0
 Symmetry not used in FoFCou.
 E= -449.125089399944    
 DIIS: error= 7.48D-03 at cycle   1 NSaved=   1.
 NSaved= 1 IEnMin= 1 EnMin= -449.125089399944     IErMin= 1 ErrMin= 7.48D-03
 ErrMax= 7.48D-03  0.00D+00 EMaxC= 1.00D-01 BMatC= 2.20D-02 BMatP= 2.20D-02
 IDIUse=3 WtCom= 9.25D-01 WtEn= 7.48D-02
 Coeff-Com:  0.100D+01
 Coeff-En:   0.100D+01
 Coeff:      0.100D+01
 Gap=     0.515 Goal=   None    Shift=    0.000
 GapD=    0.515 DampG=2.000 DampE=1.000 DampFc=2.0000 IDamp=-1.
 RMSDP=2.53D-03 MaxDP=5.51D-02              OVMax= 8.59D-02

 Cycle   2  Pass 1  IDiag  1:
 RMSU=  2.51D-03    CP:  9.90D-01
 E= -449.164555973345     Delta-E=       -0.039466573401 Rises=F Damp=F
 DIIS: error= 1.51D-03 at cycle   2 NSaved=   2.
 NSaved= 2 IEnMin= 2 EnMin= -449.164555973345     IErMin= 2 ErrMin= 1.51D-03
 ErrMax= 1.51D-03  0.00D+00 EMaxC= 1.00D-01 BMatC= 7.23D-04 BMatP= 2.20D-02
 IDIUse=3 WtCom= 9.85D-01 WtEn= 1.51D-02
 Coeff-Com: -0.512D-02 0.101D+01
 Coeff-En:   0.000D+00 0.100D+01
 Coeff:     -0.505D-02 0.101D+01
 Gap=     0.225 Goal=   None    Shift=    0.000
 RMSDP=4.19D-04 MaxDP=1.33D-02 DE=-3.95D-02 OVMax= 1.28D-02

 Cycle   3  Pass 1  IDiag  1:
 RMSU=  3.95D-04    CP:  9.89D-01  1.05D+00
 E= -449.164395258262     Delta-E=        0.000160715083 Rises=F Damp=F
 DIIS: error= 1.96D-03 at cycle   3 NSaved=   3.
 NSaved= 3 IEnMin= 2 EnMin= -449.164555973345     IErMin= 2 ErrMin= 1.51D-03
 ErrMax= 1.96D-03  0.00D+00 EMaxC= 1.00D-01 BMatC= 1.00D-03 BMatP= 7.23D-04
 IDIUse=3 WtCom= 1.84D-01 WtEn= 8.16D-01
 Coeff-Com: -0.319D-01 0.563D+00 0.469D+00
 Coeff-En:   0.000D+00 0.544D+00 0.456D+00
 Coeff:     -0.587D-02 0.548D+00 0.458D+00
 Gap=     0.228 Goal=   None    Shift=    0.000
 RMSDP=2.24D-04 MaxDP=8.38D-03 DE= 1.61D-04 OVMax= 1.04D-02

 Cycle   4  Pass 1  IDiag  1:
 RMSU=  1.13D-04    CP:  9.89D-01  1.07D+00  5.15D-01
 E= -449.165449054365     Delta-E=       -0.001053796103 Rises=F Damp=F
 DIIS: error= 1.82D-04 at cycle   4 NSaved=   4.
 NSaved= 4 IEnMin= 4 EnMin= -449.165449054365     IErMin= 4 ErrMin= 1.82D-04
 ErrMax= 1.82D-04  0.00D+00 EMaxC= 1.00D-01 BMatC= 1.33D-05 BMatP= 7.23D-04
 IDIUse=3 WtCom= 9.98D-01 WtEn= 1.82D-03
 Coeff-Com: -0.114D-01 0.146D+00 0.177D+00 0.688D+00
 Coeff-En:   0.000D+00 0.000D+00 0.000D+00 0.100D+01
 Coeff:     -0.114D-01 0.146D+00 0.177D+00 0.689D+00
 Gap=     0.227 Goal=   None    Shift=    0.000
 RMSDP=5.24D-05 MaxDP=9.53D-04 DE=-1.05D-03 OVMax= 1.32D-03

 Cycle   5  Pass 1  IDiag  1:
 RMSU=  3.90D-05    CP:  9.89D-01  1.07D+00  5.63D-01  7.73D-01
 E= -449.165463953581     Delta-E=       -0.000014899216 Rises=F Damp=F
 DIIS: error= 3.60D-05 at cycle   5 NSaved=   5.
 NSaved= 5 IEnMin= 5 EnMin= -449.165463953581     IErMin= 5 ErrMin= 3.60D-05
 ErrMax= 3.60D-05  0.00D+00 EMaxC= 1.00D-01 BMatC= 5.43D-07 BMatP= 1.33D-05
 IDIUse=1 WtCom= 1.00D+00 WtEn= 0.00D+00
 Coeff-Com: -0.730D-03-0.374D-02 0.157D-01 0.204D+00 0.785D+00
 Coeff:     -0.730D-03-0.374D-02 0.157D-01 0.204D+00 0.785D+00
 Gap=     0.227 Goal=   None    Shift=    0.000
 RMSDP=9.72D-06 MaxDP=4.62D-04 DE=-1.49D-05 OVMax= 2.60D-04

 Cycle   6  Pass 1  IDiag  1:
 RMSU=  6.56D-06    CP:  9.89D-01  1.07D+00  5.68D-01  8.22D-01  8.98D-01
 E= -449.165464518661     Delta-E=       -0.000000565080 Rises=F Damp=F
 DIIS: error= 1.63D-05 at cycle   6 NSaved=   6.
 NSaved= 6 IEnMin= 6 EnMin= -449.165464518661     IErMin= 6 ErrMin= 1.63D-05
 ErrMax= 1.63D-05  0.00D+00 EMaxC= 1.00D-01 BMatC= 8.89D-08 BMatP= 5.43D-07
 IDIUse=1 WtCom= 1.00D+00 WtEn= 0.00D+00
 Coeff-Com:  0.242D-03-0.889D-02-0.145D-02 0.580D-01 0.367D+00 0.585D+00
 Coeff:      0.242D-03-0.889D-02-0.145D-02 0.580D-01 0.367D+00 0.585D+00
 Gap=     0.227 Goal=   None    Shift=    0.000
 RMSDP=2.38D-06 MaxDP=8.56D-05 DE=-5.65D-07 OVMax= 1.09D-04

 Cycle   7  Pass 1  IDiag  1:
 RMSU=  1.73D-06    CP:  9.89D-01  1.07D+00  5.68D-01  8.27D-01  9.10D-01
                    CP:  7.81D-01
 E= -449.165464611834     Delta-E=       -0.000000093173 Rises=F Damp=F
 DIIS: error= 3.93D-06 at cycle   7 NSaved=   7.
 NSaved= 7 IEnMin= 7 EnMin= -449.165464611834     IErMin= 7 ErrMin= 3.93D-06
 ErrMax= 3.93D-06  0.00D+00 EMaxC= 1.00D-01 BMatC= 3.29D-09 BMatP= 8.89D-08
 IDIUse=1 WtCom= 1.00D+00 WtEn= 0.00D+00
 Coeff-Com:  0.134D-03-0.337D-02-0.141D-02 0.115D-01 0.105D+00 0.242D+00
 Coeff-Com:  0.646D+00
 Coeff:      0.134D-03-0.337D-02-0.141D-02 0.115D-01 0.105D+00 0.242D+00
 Coeff:      0.646D+00
 Gap=     0.227 Goal=   None    Shift=    0.000
 RMSDP=5.82D-07 MaxDP=1.36D-05 DE=-9.32D-08 OVMax= 1.62D-05

 Cycle   8  Pass 1  IDiag  1:
 RMSU=  4.77D-07    CP:  9.89D-01  1.07D+00  5.68D-01  8.26D-01  9.16D-01
                    CP:  7.74D-01  8.69D-01
 E= -449.165464615152     Delta-E=       -0.000000003318 Rises=F Damp=F
 DIIS: error= 9.10D-07 at cycle   8 NSaved=   8.
 NSaved= 8 IEnMin= 8 EnMin= -449.165464615152     IErMin= 8 ErrMin= 9.10D-07
 ErrMax= 9.10D-07  0.00D+00 EMaxC= 1.00D-01 BMatC= 2.49D-10 BMatP= 3.29D-09
 IDIUse=1 WtCom= 1.00D+00 WtEn= 0.00D+00
 Coeff-Com:  0.430D-04-0.879D-03-0.515D-03 0.822D-03 0.206D-01 0.700D-01
 Coeff-Com:  0.285D+00 0.625D+00
 Coeff:      0.430D-04-0.879D-03-0.515D-03 0.822D-03 0.206D-01 0.700D-01
 Coeff:      0.285D+00 0.625D+00
 Gap=     0.227 Goal=   None    Shift=    0.000
 RMSDP=2.02D-07 MaxDP=6.66D-06 DE=-3.32D-09 OVMax= 5.05D-06

 Cycle   9  Pass 1  IDiag  1:
 RMSU=  1.25D-07    CP:  9.89D-01  1.07D+00  5.68D-01  8.26D-01  9.17D-01
                    CP:  7.87D-01  8.83D-01  7.77D-01
 E= -449.165464615455     Delta-E=       -0.000000000303 Rises=F Damp=F
 DIIS: error= 2.19D-07 at cycle   9 NSaved=   9.
 NSaved= 9 IEnMin= 9 EnMin= -449.165464615455     IErMin= 9 ErrMin= 2.19D-07
 ErrMax= 2.19D-07  0.00D+00 EMaxC= 1.00D-01 BMatC= 1.27D-11 BMatP= 2.49D-10
 IDIUse=1 WtCom= 1.00D+00 WtEn= 0.00D+00
 Coeff-Com:  0.555D-05-0.600D-04-0.729D-04-0.671D-03-0.583D-03 0.779D-02
 Coeff-Com:  0.526D-01 0.225D+00 0.717D+00
 Coeff:      0.555D-05-0.600D-04-0.729D-04-0.671D-03-0.583D-03 0.779D-02
 Coeff:      0.526D-01 0.225D+00 0.717D+00
 Gap=     0.227 Goal=   None    Shift=    0.000
 RMSDP=4.76D-08 MaxDP=9.23D-07 DE=-3.03D-10 OVMax= 1.19D-06

 Cycle  10  Pass 1  IDiag  1:
 RMSU=  3.40D-08    CP:  9.89D-01  1.07D+00  5.68D-01  8.26D-01  9.17D-01
                    CP:  7.90D-01  8.90D-01  8.05D-01  9.23D-01
 E= -449.165464615451     Delta-E=        0.000000000004 Rises=F Damp=F
 DIIS: error= 7.34D-08 at cycle  10 NSaved=  10.
 NSaved=10 IEnMin= 9 EnMin= -449.165464615455     IErMin=10 ErrMin= 7.34D-08
 ErrMax= 7.34D-08  0.00D+00 EMaxC= 1.00D-01 BMatC= 1.90D-12 BMatP= 1.27D-11
 IDIUse=1 WtCom= 1.00D+00 WtEn= 0.00D+00
 Coeff-Com: -0.109D-05 0.452D-04 0.161D-04-0.338D-03-0.181D-02-0.215D-02
 Coeff-Com: -0.193D-02 0.457D-01 0.334D+00 0.626D+00
 Coeff:     -0.109D-05 0.452D-04 0.161D-04-0.338D-03-0.181D-02-0.215D-02
 Coeff:     -0.193D-02 0.457D-01 0.334D+00 0.626D+00
 Gap=     0.227 Goal=   None    Shift=    0.000
 RMSDP=1.41D-08 MaxDP=3.95D-07 DE= 3.98D-12 OVMax= 6.27D-07

 Cycle  11  Pass 1  IDiag  1:
 RMSU=  9.22D-09    CP:  9.89D-01  1.07D+00  5.68D-01  8.26D-01  9.18D-01
                    CP:  7.90D-01  8.93D-01  8.15D-01  9.27D-01  7.98D-01
 E= -449.165464615438     Delta-E=        0.000000000013 Rises=F Damp=F
 DIIS: error= 1.42D-08 at cycle  11 NSaved=  11.
 NSaved=11 IEnMin= 9 EnMin= -449.165464615455     IErMin=11 ErrMin= 1.42D-08
 ErrMax= 1.42D-08  0.00D+00 EMaxC= 1.00D-01 BMatC= 8.15D-14 BMatP= 1.90D-12
 IDIUse=1 WtCom= 1.00D+00 WtEn= 0.00D+00
 Coeff-Com: -0.846D-06 0.235D-04 0.122D-04-0.104D-03-0.751D-03-0.144D-02
 Coeff-Com: -0.455D-02 0.367D-02 0.846D-01 0.246D+00 0.672D+00
 Coeff:     -0.846D-06 0.235D-04 0.122D-04-0.104D-03-0.751D-03-0.144D-02
 Coeff:     -0.455D-02 0.367D-02 0.846D-01 0.246D+00 0.672D+00
 Gap=     0.227 Goal=   None    Shift=    0.000
 RMSDP=4.05D-09 MaxDP=1.08D-07 DE= 1.32D-11 OVMax= 7.69D-08

 SCF Done:  E(RB3LYP) =  -449.165464615     A.U. after   11 cycles
            NFock= 11  Conv=0.41D-08     -V/T= 2.0055
 KE= 4.467156484711D+02 PE=-1.557922804546D+03 EE= 4.118380720531D+02
 Leave Link  502 at Mon May 13 12:12:46 2024, MaxMem=    33554432 cpu:        28.4
 (Enter /g100_work/pMI24_ChiCa/g09d1/g09d01/d01/build-node-6-2-59348/src/main/l701.exe)
 Compute integral first derivatives.
 ... and contract with generalized density number  0.
 Leave Link  701 at Mon May 13 12:12:46 2024, MaxMem=    33554432 cpu:         0.1
 (Enter /g100_work/pMI24_ChiCa/g09d1/g09d01/d01/build-node-6-2-59348/src/main/l702.exe)
 L702 exits ... SP integral derivatives will be done elsewhere.
 Leave Link  702 at Mon May 13 12:12:46 2024, MaxMem=    33554432 cpu:         0.0
 (Enter /g100_work/pMI24_ChiCa/g09d1/g09d01/d01/build-node-6-2-59348/src/main/l703.exe)
 Compute integral first derivatives, UseDBF=F ICtDFT=           0.
 Integral derivatives from FoFJK, PRISM(SPDF).
 Calling FoFJK, ICntrl=      2127 FMM=F ISym2X=0 I1Cent= 0 IOpClX= 0 NMat=1 NMatS=1 NMatT=0.
 FoFJK:  IHMeth= 1 ICntrl=    2127 DoSepK=F KAlg= 0 I1Cent=   0 FoldK=F
 IRaf=         0 NMat=   1 IRICut=       1 DoRegI=T DoRafI=F ISym2E= 0.
 FoFCou: FMM=F IPFlag=           0 FMFlag=      100000 FMFlg1=         800
         NFxFlg=           0 DoJE=F BraDBF=F KetDBF=F FulRan=T
         wScrn=  0.000000 ICntrl=    2127 IOpCl=  0 I1Cent=           0 NGrid=           0
         NMat0=    1 NMatS0=      1 NMatT0=    0 NMatD0=    1 NMtDS0=    0 NMtDT0=    0
 Symmetry not used in FoFCou.
 Leave Link  703 at Mon May 13 12:12:55 2024, MaxMem=    33554432 cpu:         8.7
 (Enter /g100_work/pMI24_ChiCa/g09d1/g09d01/d01/build-node-6-2-59348/src/main/l716.exe)
 Dipole        = 2.43166729D-02-4.81842562D-01 5.29989154D-02
 -------------------------------------------------------------------
 Center     Atomic                   Forces (Hartrees/Bohr)
 Number     Number              X              Y              Z
 -------------------------------------------------------------------
      1       14           0.002566574    0.066338548    0.000291133
      2        6          -0.007978204   -0.040980111    0.007562432
      3        6           0.005003426   -0.011788532   -0.000756701
      4        1          -0.004576642    0.003389383   -0.001226203
      5        1           0.001951420   -0.001817954    0.011303260
      6        1           0.003323725   -0.001252215   -0.000342280
      7        1           0.003162472   -0.000870417   -0.002929632
      8        1           0.002122461    0.001246241    0.001852892
      9        1           0.007794557   -0.001992658   -0.002705396
     10        6          -0.009519331   -0.041720387    0.001514686
     11        1          -0.004646813   -0.000831092   -0.003222201
     12        1           0.003271200    0.001177258    0.002025959
     13        1          -0.007058913   -0.003940640   -0.007894739
     14        6           0.009162816    0.017540803   -0.010108729
     15        1           0.001674977    0.007554015    0.003948134
     16        1          -0.001986099    0.005863840   -0.000706290
     17        1          -0.004267626    0.002083918    0.001393675
 -------------------------------------------------------------------
 Cartesian Forces:  Max     0.066338548 RMS     0.013501878
 -----------------------------------------------------------------------------------------------
                       Internal Coordinate Forces (Hartree/Bohr or radian)
  Cent   Atom   N1       Length/X         N2         Alpha/Y        N3         Beta/Z          J
 -----------------------------------------------------------------------------------------------
      1  Si
      2  C        1   0.017297(     1)
      3  C        1   0.018539(     2)      2   0.016897(    17)
      4  H        2   0.004498(     3)      1  -0.006410(    18)      3   0.005860(    32)     0
      5  H        2   0.004722(     4)      1   0.021273(    19)      4   0.004924(    33)     0
      6  H        2   0.002957(     5)      1  -0.002856(    20)      4  -0.002798(    34)     0
      7  H        3   0.002940(     6)      1   0.006529(    21)      2   0.003426(    35)     0
      8  H        3   0.002566(     7)      1   0.001084(    22)      7   0.003149(    36)     0
      9  H        3   0.004470(     8)      1   0.014737(    23)      7   0.001844(    37)     0
     10  C        1   0.025218(     9)      3   0.024002(    24)      2   0.116779(    38)     0
     11  H       10   0.003246(    10)      1   0.009690(    25)      3   0.003690(    39)     0
     12  H       10  -0.000236(    11)      1  -0.008141(    26)     11   0.001378(    40)     0
     13  H       10   0.005402(    12)      1   0.020324(    27)     11   0.002166(    41)     0
     14  C        1   0.030409(    13)     10   0.016808(    28)      3  -0.042290(    42)     0
     15  H       14   0.007523(    14)      1   0.008907(    29)     10   0.001683(    43)     0
     16  H       14   0.002726(    15)      1   0.011550(    30)     15   0.000843(    44)     0
     17  H       14   0.004590(    16)      1   0.003670(    31)     15   0.000979(    45)     0
 -----------------------------------------------------------------------------------------------
 Internal  Forces:  Max     0.116779309 RMS     0.021428570
 Leave Link  716 at Mon May 13 12:12:55 2024, MaxMem=    33554432 cpu:         0.0
 (Enter /g100_work/pMI24_ChiCa/g09d1/g09d01/d01/build-node-6-2-59348/src/main/l103.exe)

 GradGradGradGradGradGradGradGradGradGradGradGradGradGradGradGradGradGrad
 Berny optimization.
 Search for a local minimum.
 Step number   2 out of a maximum of   55
 All quantities printed in internal units (Hartrees-Bohrs-Radians)
 Update second derivatives using D2CorN and points    1    2
 DE= -9.28D-02 DEPred=-1.76D-01 R= 5.28D-01
 TightC=F SS=  1.41D+00  RLast= 3.00D-01 DXNew= 5.0454D-01 9.0000D-01
 Trust test= 5.28D-01 RLast= 3.00D-01 DXMaxT set to 5.05D-01
 ITU=  1  0
     Eigenvalues ---    0.05081   0.06250   0.06311   0.06629   0.09743
     Eigenvalues ---    0.14326   0.14338   0.14338   0.14392   0.15174
     Eigenvalues ---    0.15807   0.16694   0.22251   0.22543   0.22543
     Eigenvalues ---    0.22816   0.23980   0.24693   0.25412   0.25989
     Eigenvalues ---    0.28020   0.31700   0.32423   0.32454   0.32454
     Eigenvalues ---    0.33791   0.34896   0.34928   0.34928   0.34928
     Eigenvalues ---    0.34928   0.34928   0.34928   0.34928   0.34928
     Eigenvalues ---    0.34928   0.34928   0.35342   0.42211   0.42246
     Eigenvalues ---    0.42246   0.42246   0.46201   0.95140   2.03598
 RFO step:  Lambda=-2.17110576D-01 EMin= 5.08060378D-02
 Quartic linear search produced a step of  1.39348.
 Maximum step size (   0.505) exceeded in Quadratic search.
    -- Step size scaled by   0.699
 Variable       Old X    -DE/DX   Delta X   Delta X   Delta X     New X
                                 (Linear)    (Quad)   (Total)
   csi2       3.56232   0.01730   0.09242   0.08049   0.17291   3.73523
   csi3       3.51082   0.01854   0.02066   0.07864   0.09930   3.61012
[...]
 83656,-0.0556127,0.083532,-0.0526194,0.0911781,0.018235,0.0346137,-0.0
 784669,-0.047997,-0.0784519,-0.0559897,-0.0832365,-0.0525019,-0.090850
 3,0.0184903,0.0685437,-0.0000023,0.0445115,-0.0000167,0.0798673,-0.000
 0828,0.0358118,-0.0000738,-0.151444,-0.0118735,-0.1122371,-0.0362386,-
 0.1050003,-0.0559139,-0.0459103,-0.0316576,-0.0432713,0.0648368,-0.011
 7954,0.1121923,-0.0362443,0.1049594,-0.0561079,0.0460178,-0.0316856,0.
 0433094,0.0647897,-0.3222466,-0.1038111,-0.0428453,-0.1042015,-0.44269
 37,-0.0737844,-0.0428208,-0.0747367,-0.2933827,-0.1385441,-0.0321487,0
 .0583193,-0.0392384,0.0712115,0.0086021,0.0536622,0.0060253,0.0646196,
 0.0769067,-0.0050051,-0.0227531,-0.0049252,0.0713475,-0.0381066,-0.018
 4026,-0.030466,-0.1514672,0.048757,0.0704369,-0.0215168,0.0775269,-0.1
 167315,0.0536212,-0.0215418,0.0484693,0.0651474,-0.3221899,0.1039622,-
 0.0427322,0.1042754,-0.4431564,0.0735467,-0.0424542,0.0740117,-0.29283
 58,0.0485745,-0.0705016,-0.021728,-0.0775357,-0.1163641,-0.05403,-0.02
 1766,-0.0489123,0.0648746,0.0769093,0.0050325,-0.0228891,0.0049841,0.0
 713027,0.0386825,-0.0185628,0.0310735,-0.1515114,-0.1384106,0.03209,0.
 0585015,0.0391958,0.0711619,-0.0085938,0.0538772,-0.0060363,0.0644726\
 Polar=74.4064191,-0.0055636,74.4124017,-0.0003194,0.0149885,74.4322039
 \AAT=0.0000951,0.0010258,0.0002331,-0.0001532,-0.0000786,-0.0005853,-0
 .0000165,-0.0006426,-0.0000131,0.0000765,-0.418522,-0.0001492,0.418385
 8,-0.0000525,-0.000558,-0.000074,-0.0000723,-0.000006,-0.0000157,0.139
 9907,-0.0001242,-0.1393003,-0.0000294,-0.3942671,0.0001429,0.394056,0.
 0000499,-0.0001196,-0.0643759,-0.000107,-0.1150287,0.0002084,-0.143712
 6,0.000152,0.344177,0.0000557,-0.0778017,0.0702099,0.1241843,0.0193086
 ,0.0776822,0.0719202,-0.2980371,-0.1722901,-0.0000446,0.0779294,0.0699
 623,-0.1243858,0.0199843,-0.077899,0.0719724,0.2980823,-0.1722498,-0.0
 000286,-0.0000143,-0.3023912,0.0000828,0.1739557,0.0001223,0.0603577,-
 0.0000973,0.1769544,-0.0000643,-0.0631624,0.1386777,-0.3033497,-0.0741
 77,0.0776364,0.005518,0.1192284,-0.123877,-0.0142014,0.0631604,0.13877
 15,0.3033628,-0.0743312,-0.0777668,0.0052382,-0.1192934,-0.1238029,0.0
 14309,0.0000247,0.1399352,-0.3417002,-0.1399632,0.000253,0.1968686,0.3
 412537,-0.1973587,-0.000295,-0.071001,0.1518418,-0.1456941,-0.0620206,
 0.0564839,-0.2653345,-0.0478514,0.1647076,0.0143157,0.0561264,-0.20628
 69,0.0515512,0.2701639,-0.0554528,-0.0309958,0.153706,-0.0876393,-0.00
 07574,0.0150891,0.0285865,0.1558049,-0.1822237,-0.0010381,0.2610281,-0
 .1672255,-0.0417967,-0.0136864,-0.0001256,0.1395066,0.3419637,-0.13929
 21,-0.000072,0.1967504,-0.3413811,-0.1972342,0.0002316,-0.0152042,0.02
 88458,-0.1554537,-0.1825959,0.0006826,0.2611677,0.1667932,-0.0420026,0
 .0142066,-0.0561816,-0.20608,-0.0520561,0.2704504,0.0557104,-0.0310108
 ,-0.1531079,-0.0874098,0.0005801,0.0711427,0.1516619,0.1458497,-0.0622
 157,-0.0563756,-0.2654025,0.0476814,0.1646397,-0.0146399\GPTens=0.0004
 342,0.0891776,0.0208166,-0.0438239,0.0008208,-0.0343701,-0.0183641,-0.
 0054209,-0.0006199\OptRot=-0.0016244,-0.0129291,-0.001343,-0.0129291,0
 .0006684,0.0065241,-0.001343,0.0065241,0.001591\DQPolar=13.943319,-13.
 7948402,-0.1484788,0.0501845,-9.9345382,-0.0229459,-0.0346797,0.102248
 8,-0.0675692,-13.6682634,-0.0268,-10.0400114,-9.6049251,-9.6976728,19.
 3025979,-0.0199007,-0.0492915,0.0231336\PG=C01 [X(C4H12Si1)]\NImag=0\\
 0.33223077,-0.00000721,0.33250618,-0.00037524,0.00012556,0.33295832,-0
 .04265742,0.00000477,0.00021172,0.51250221,0.00000342,-0.04238285,0.00
 000927,-0.00008670,0.51227472,0.00024550,0.00004236,-0.14401288,-0.000
 39367,-0.00026125,0.38131420,-0.13251177,-0.00000997,0.03168240,0.0025
 6060,0.00000184,-0.00078470,0.39528980,-0.00000948,-0.04279162,-0.0000
 0385,-0.00000448,0.00299927,-0.00000175,0.00015742,0.51265329,0.031848
 56,0.00000026,-0.05388888,0.01889875,-0.00000013,-0.00384051,0.0419308
 7,0.00009254,0.49738676,-0.00059397,-0.00000097,-0.00191838,-0.2729910
 4,0.00013192,0.08874773,0.00060171,0.00000053,-0.00010344,0.29907707,0
 .00000876,-0.00172880,-0.00000476,0.00015238,-0.04347275,-0.00003977,0
 .00000018,0.00029251,-0.00000105,-0.00013817,0.04420639,0.02222046,-0.
 00000898,-0.00457656,0.10456104,-0.00003932,-0.07625601,-0.00115645,0.
 00000187,-0.00559560,-0.09881255,0.00004292,0.07690413,-0.00137094,-0.
 00048205,0.00100550,-0.10071717,0.09944003,-0.04438122,-0.00002911,-0.
 00010983,-0.00045610,-0.01355074,0.02475719,-0.01239110,0.10768927,-0.
 00051351,-0.00074524,-0.00170284,0.09941518,-0.21542290,0.07692587,-0.
 00023834,0.00002503,0.00028782,-0.00083622,0.00025098,-0.00057058,-0.1
 1042328,0.23498549,-0.01118601,0.01936711,-0.00464227,-0.05223869,0.09
 050231,-0.07572864,0.00033152,-0.00091172,0.00147128,0.00569785,-0.011
 01536,0.00350929,0.04942267,-0.08567311,0.07643323,-0.00136821,0.00047
 056,0.00100749,-0.10070923,-0.09950494,-0.04422176,-0.00002952,0.00011
 043,-0.00045587,-0.01356843,-0.02478025,-0.01235188,0.00715226,0.01281
 586,0.00668435,0.10769834,0.00049067,-0.00077451,0.00168792,-0.0995027
 0,-0.21567431,-0.07667521,0.00023878,0.00002678,-0.00028492,0.00084508
 ,0.00027302,0.00057469,-0.01280486,-0.02047686,-0.01041011,0.11050745,
 0.23523880,-0.01119948,-0.01939608,-0.00466429,-0.05208375,-0.09025008
 ,-0.07542714,0.00033328,0.00091414,0.00147675,0.00570409,0.01101953,0.
 00349211,0.00670722,0.01045013,0.00348768,0.04924459,0.08538992,0.0761
 4956,0.00229473,0.00000329,0.02143031,-0.00530045,-0.00000050,0.000941
 33,-0.03660903,-0.00000563,0.02009546,0.00008159,0.00000043,0.00186346
 ,0.00007295,-0.00016290,-0.00032691,0.00007311,0.00016249,-0.00032903,
 0.03887044,0.00000139,-0.00156576,-0.00000193,-0.00000126,0.00028733,-
 0.00000023,-0.00000973,-0.04334783,-0.00011457,0.00000013,0.00032304,0
 .00000028,0.00005532,0.00008781,-0.00032127,-0.00005495,0.00008867,0.0
 0032133,0.00000182,0.04388532,-0.00293820,0.00000003,-0.00737573,0.001
 99703,-0.00000019,0.00030288,0.00448837,-0.00010687,-0.31172159,-0.000
 07257,-0.00000022,-0.00055516,-0.00011345,0.00001306,0.00024840,-0.000
 11362,-0.00001274,0.00024892,-0.00610220,0.00010585,0.33620920,-0.0073
 7687,-0.01823197,-0.00896208,0.00125105,0.00089235,-0.00012129,-0.1090
 3129,-0.11850482,-0.04920317,0.00008761,0.00028227,-0.00032477,-0.0000
 0432,0.00006443,-0.00015977,-0.00001449,0.00012107,0.00090918,-0.00056
 384,0.00207453,0.00105506,0.11109397,0.00170815,-0.00073958,-0.0000659
 3,-0.00016527,0.00003393,0.00030446,-0.10582578,-0.21556708,-0.0678499
 8,0.00004173,0.00008831,0.00015932,-0.00004741,-0.00003539,-0.00005429
 ,-0.00006781,0.00016558,0.00016313,0.00082566,0.00024767,0.00060282,0.
 11775619,0.23514024,0.00315746,0.00691619,0.00147367,-0.00089062,-0.00
 019968,0.00015596,-0.04130853,-0.06326841,-0.06743055,-0.00011776,-0.0
 0015818,0.00022759,0.00008045,0.00002826,0.00002320,0.00014690,-0.0000
 8955,-0.00038548,-0.01704062,-0.02701661,-0.00951632,0.04812296,0.0752
 1746,0.07299731,-0.00737871,0.01824342,-0.00896942,0.00125740,-0.00089
 377,-0.00012106,-0.10889593,0.11837172,-0.04918937,0.00008721,-0.00028
 255,-0.00032689,-0.00001604,-0.00011922,0.00091070,-0.00000481,-0.0000
 6482,-0.00015982,-0.00056338,-0.00206804,0.00105344,0.00813323,-0.0141
 1656,0.00634634,0.11095445,-0.00169875,-0.00075073,0.00007078,0.000163
 83,0.00003490,-0.00030506,0.10569343,-0.21556411,0.06788046,-0.0000417
 4,0.00008851,-0.00015894,0.00006782,0.00016493,-0.00016425,0.00004754,
 -0.00003512,0.00005458,-0.00082662,0.00025669,-0.00060187,0.01410502,-
 0.02046637,0.00857452,-0.11762348,0.23513896,0.00316120,-0.00691698,0.
 00147811,-0.00089348,0.00019905,0.00015734,-0.04129085,0.06329630,-0.0
 6745296,-0.00011762,0.00015797,0.00022835,0.00014796,0.00008907,-0.000
 38670,0.00008071,-0.00002828,0.00002288,-0.01703268,0.02702561,-0.0095
 4424,0.00633559,-0.00856817,0.00251514,0.04810473,-0.07525830,0.073047
 24,-0.06515713,-0.03895011,-0.01592492,0.00285950,-0.00021773,0.000369
 35,-0.00600074,-0.01554149,-0.00634704,0.00016741,0.00002315,-0.000948
 41,-0.00014280,-0.00006156,0.00061230,0.00036877,0.00013420,0.00057662
 ,0.00117557,0.00024680,0.00007399,-0.00474876,0.00013147,0.00186028,0.
 00146976,0.00045482,-0.00058357,0.48336397,-0.03894999,-0.10995427,-0.
 02753319,-0.00017833,0.00266548,0.00063576,0.00054498,0.00261038,-0.00
 044626,0.00012094,-0.00016494,0.00015284,-0.00015693,0.00013585,-0.000
 72959,0.00013391,0.00052652,0.00101342,0.00018920,-0.00016634,0.000053
 16,0.00096990,0.00052054,-0.00019957,-0.00074255,0.00012936,0.00008855
 ,-0.05059022,0.42467270,-0.01592025,-0.02756070,-0.05381382,-0.0094744
 1,-0.01645645,-0.00399364,0.00351396,0.00526662,0.00498117,0.00045516,
 0.00026897,0.00147144,-0.00000698,0.00052874,0.00147233,0.00005270,0.0
 0008195,-0.00559378,-0.00129412,-0.00007113,0.00046844,0.00238347,0.00
 009908,-0.00049218,0.00002832,-0.00023963,-0.00015705,-0.02094585,-0.0
 3639114,0.49714901,-0.00960210,0.00289969,0.00462835,0.00063005,0.0002
 0308,-0.00017474,-0.00031646,-0.00243054,-0.00127666,0.00012331,-0.000
 19315,-0.00060613,-0.00002294,-0.00003416,0.00012799,0.00022815,-0.000
 03936,0.00002823,0.00021880,0.00005673,0.00003589,-0.00074129,0.000024
 43,0.00039310,0.00037091,0.00012280,-0.00007455,-0.28545692,-0.0041416
 8,0.08397807,0.30562893,-0.01685546,0.00116850,0.00777402,0.00124224,0
 .00066040,0.00028250,-0.00157743,-0.00389841,-0.00201275,0.00003663,-0
 .00002437,-0.00068381,0.00007505,-0.00002057,0.00011031,0.00020286,-0.
 00005201,0.00036643,0.00046408,0.00003014,-0.00002929,-0.00155578,0.00
 014483,0.00043915,0.00006095,0.00012504,-0.00017545,-0.01686951,-0.038
 67063,0.00898375,0.00574311,0.04042370,-0.00758284,0.00067158,0.001487
 79,0.00060648,0.00073093,0.00023048,-0.00076209,-0.00172988,-0.0005032
 1,-0.00001889,-0.00024977,-0.00044930,-0.00006938,-0.00005069,0.000024
 86,0.00019565,0.00002365,0.00023114,-0.00014323,-0.00011303,0.00016199
 ,-0.00058362,-0.00011967,0.00045835,0.00032170,0.00003672,-0.00009198,
 0.07615350,0.00448441,-0.06775465,-0.08994930,-0.00435466,0.07347873,-
 0.00060307,0.00173684,-0.01067154,-0.00110172,-0.00241072,-0.00046298,
 0.00031995,0.00072050,0.00073346,0.00013080,-0.00008971,-0.00011622,0.
 00003650,0.00007597,0.00043980,0.00026303,-0.00010451,-0.00092877,-0.0
 0061018,-0.00025853,0.00029681,0.00029833,0.00000609,0.00017372,0.0000
 4612,-0.00006454,-0.00007964,-0.04173121,0.00284039,-0.01083524,0.0013
 7581,0.00092002,0.03190242,0.04278411,0.00166901,0.00127652,-0.0187121
 2,-0.00242014,-0.00390739,-0.00081571,0.00065856,0.00064338,0.00110551
 ,0.00012983,0.00003010,0.00044022,-0.00014176,0.00012390,0.00012338,-0
 .00010400,0.00013965,-0.00161607,-0.00064084,0.00000984,0.00031426,0.0
 0040890,-0.00005400,0.00006929,0.00013084,-0.00001897,0.00003386,0.002
 76147,-0.03836358,-0.01684403,-0.00021908,-0.00157703,0.00130240,-0.00
 219759,0.04009703,0.00150666,0.00252062,-0.00758340,-0.00100233,-0.001
 73705,0.00029927,-0.00007973,-0.00004089,0.00047656,0.00006842,0.00009
 056,0.00024664,0.00004298,0.00010471,0.00024466,0.00003547,0.00006275,
 -0.00055907,-0.00032014,-0.00007685,0.00026642,0.00000085,-0.00004620,
 0.00016166,0.00010355,-0.00001710,-0.00003423,-0.00303498,-0.00330022,
 -0.31165201,-0.00106172,-0.00058774,-0.00962556,0.00375377,0.00464991,
 0.33629945,0.00471718,-0.00871962,0.00436536,0.00001661,0.00087958,0.0
 0031707,0.00031529,0.00110579,0.00019747,-0.00003836,0.00006525,0.0000
 3244,0.00009082,0.00004501,-0.00028798,-0.00005096,0.00003874,0.000300
 04,0.00004011,-0.00004494,-0.00003440,0.00027294,0.00018255,-0.0001924
 6,-0.00054437,-0.00005974,0.00000552,-0.09244915,0.09637807,-0.0339849
 2,-0.01339294,0.02648299,-0.01047711,-0.00126542,-0.00038047,-0.000030
 12,0.10302291,0.01125629,-0.01294171,0.00782404,-0.00017959,0.00126612
 ,-0.00004838,-0.00011637,0.00127883,-0.00012013,-0.00004123,-0.0000009
 9,0.00017733,-0.00019887,0.00008302,-0.00087126,-0.00020190,0.00022655
 ,0.00020163,0.00014774,-0.00000510,-0.00009762,0.00013080,0.00023046,-
 0.00026234,-0.00093881,0.00005571,0.00010412,0.10919294,-0.23261577,0.
 07578225,-0.00178315,0.00105366,-0.00124807,-0.00167522,0.00082460,-0.
 00117741,-0.11321077,0.24388553,0.00447909,-0.00616455,0.00145768,0.00
 029340,0.00086705,0.00015382,0.00021670,0.00055399,-0.00015817,-0.0000
 0755,-0.00008091,0.00003801,-0.00019238,-0.00007669,-0.00046260,-0.000
 08111,0.00018157,0.00022855,0.00000770,0.00009657,-0.00004327,0.000189
 57,-0.00002248,-0.00009325,-0.00009487,0.00003902,0.00018760,-0.033924
 86,0.06674113,-0.06686841,0.00428785,-0.00986613,0.00246456,-0.0149527
 0,0.02825885,-0.00941944,0.04086035,-0.07858042,0.07248416,-0.06513355
 ,0.03896055,-0.01585031,0.00285481,0.00023431,0.00036000,-0.00598506,0
 .01553694,-0.00633012,0.00016754,-0.00002299,-0.00094858,0.00036963,-0
 .00013281,0.00057252,-0.00014366,0.00006229,0.00061500,0.00116924,-0.0
 0024611,0.00007785,0.00147270,-0.00045453,-0.00058353,-0.00474570,-0.0
 0012753,0.00186303,0.00699181,-0.00807650,0.00279526,0.00058709,0.0012
 7362,0.00036361,-0.00002225,0.00049485,0.00000687,-0.00127420,-0.00299
 077,-0.00111551,0.48345898,0.03896792,-0.11005346,0.02745348,0.0002054
 8,0.00262014,-0.00062133,-0.00055302,0.00261862,0.00043463,-0.00012311
 ,-0.00016546,-0.00015513,-0.00013372,0.00052588,-0.00100023,0.00015725
 ,0.00013837,0.00072471,-0.00018743,-0.00016657,-0.00005320,0.00074063,
 0.00012940,-0.00008712,-0.00097419,0.00052066,0.00020007,0.00806032,-0
 .01039354,0.00568636,0.00002036,0.00102750,0.00045703,0.00045501,0.000
 99294,-0.00010402,-0.00212921,-0.00294294,-0.00150296,0.05069635,0.424
 39573,-0.01582806,0.02744922,-0.05369910,-0.00948954,0.01649679,-0.004
 03685,0.00350931,-0.00527238,0.00498017,0.00045345,-0.00026937,0.00147
 648,0.00005282,-0.00008504,-0.00559827,-0.00000379,-0.00052561,0.00148
 272,-0.00129385,0.00006972,0.00046705,0.00002615,0.00023974,-0.0001551
 0,0.00238359,-0.00009984,-0.00049471,0.00280410,-0.00571712,0.00495716
 ,-0.00022395,0.00008203,-0.00015217,0.00057861,0.00115872,0.00047057,-
 0.00110096,-0.00210534,-0.00049463,-0.02070962,0.03608710,0.49728953,0
 .00471621,0.00870708,0.00437429,0.00001670,-0.00087874,0.00031934,0.00
 031650,-0.00110479,0.00019743,-0.00003852,-0.00006607,0.00003220,-0.00
 005106,-0.00003857,0.00030051,0.00009151,-0.00004507,-0.00028804,0.000
 04035,0.00004497,-0.00003491,-0.00054501,0.00005991,0.00000689,0.00027
 272,-0.00018267,-0.00019277,-0.00127297,0.00213251,-0.00109639,0.00010
 269,0.00008912,-0.00011382,-0.00014644,-0.00024936,-0.00004198,0.00058
 292,0.00079214,0.00018662,-0.09261846,-0.09642760,-0.03423728,0.103199
 85,-0.01127473,-0.01295010,-0.00785618,0.00017621,0.00127055,0.0000428
 4,0.00011671,0.00127944,0.00012327,0.00004160,-0.00000191,-0.00017676,
 0.00020335,0.00022842,-0.00020228,0.00020064,0.00008532,0.00087831,-0.
 00014927,-0.00000382,0.00009861,0.00093843,0.00005551,-0.00010532,-0.0
 0013113,0.00023068,0.00026276,0.00299229,-0.00295574,0.00210272,0.0000
 2955,0.00039135,0.00015446,0.00015503,0.00039923,-0.00001796,-0.000793
 03,-0.00118700,-0.00056010,-0.10924821,-0.23216785,-0.07608062,0.11324
 263,0.24339567,0.00445168,0.00612782,0.00145189,0.00029355,-0.00086227
 ,0.00015467,0.00021601,-0.00055110,-0.00015922,-0.00000689,0.00008194,
 0.00003681,-0.00008038,-0.00018156,0.00022777,-0.00019399,0.00007737,-
 0.00046090,0.00000737,-0.00009559,-0.00004274,-0.00009101,-0.00003982,
 0.00018653,0.00018888,0.00002324,-0.00009221,-0.00110622,0.00149628,-0
 .00048747,-0.00012719,-0.00029683,-0.00009284,-0.00002512,0.00018247,0
 .00016123,0.00018462,0.00055559,0.00045686,-0.03420358,-0.06705262,-0.
 06715561,0.04115538,0.07888511,0.07280613,-0.00060805,-0.00171984,-0.0
 1066207,-0.00110251,0.00241268,-0.00046664,0.00031923,-0.00072112,0.00
 073402,0.00013160,0.00008941,-0.00011675,0.00026445,0.00010432,-0.0009
 2862,0.00003699,-0.00007443,0.00044213,-0.00060726,0.00025787,0.000294
 50,0.00004474,0.00006402,-0.00007995,0.00029804,-0.00000658,0.00017273
 ,-0.00002265,-0.00045553,0.00057610,-0.00003657,-0.00009394,0.00007696
 ,0.00026227,0.00020377,0.00011712,-0.00014624,-0.00015445,-0.00002518,
 -0.04175369,-0.00280852,-0.01098892,-0.00127107,0.00171107,-0.01496653
 ,0.04280490,-0.00167136,0.00124994,0.01872176,0.00242298,-0.00391646,0
 .00082061,-0.00065721,0.00064612,-0.00110607,-0.00012970,0.00002932,-0
 .00044159,0.00010394,0.00014233,0.00161750,0.00014228,0.00012462,-0.00
 012509,0.00064125,0.00000847,-0.00031426,-0.00012926,-0.00001911,-0.00
 003351,-0.00040901,-0.00005364,-0.00006913,-0.00049363,0.00099583,-0.0
 0115793,0.00010374,0.00005381,0.00006039,-0.00020308,-0.00067042,-0.00
 040919,0.00024916,0.00039858,-0.00018227,-0.00274212,-0.03843308,0.017
 52977,0.00036505,0.00088728,-0.02822848,0.00218740,0.04012636,0.001501
 50,-0.00250930,-0.00752457,-0.00099800,0.00173067,0.00029697,-0.000082
 72,0.00004288,0.00047378,0.00006797,-0.00009085,0.00024683,0.00003595,
 -0.00006329,-0.00055416,0.00004406,-0.00010450,0.00024597,-0.00031847,
 0.00007809,0.00026430,0.00010225,0.00001696,-0.00003471,-0.00000044,0.
 00004562,0.00016071,0.00000508,0.00010596,0.00046668,-0.00006425,-0.00
 008561,-0.00003540,0.00011653,0.00040917,0.00028236,-0.00004092,0.0000
 1920,0.00016100,-0.00319720,0.00398450,-0.31150316,-0.00003420,0.00119
 888,-0.00948182,0.00392454,-0.00538622,0.33618824,-0.00959712,-0.00290
 447,0.00462855,0.00063060,-0.00020610,-0.00017226,-0.00031418,0.002428
 86,-0.00127425,0.00012521,0.00019390,-0.00060987,0.00022925,0.00003979
 ,0.00002778,-0.00002285,0.00003498,0.00012851,0.00021724,-0.00005601,0
 .00003640,0.00037130,-0.00012284,-0.00007463,-0.00074088,-0.00002360,0
 .00039370,0.00058554,-0.00001817,-0.00022486,0.00030349,0.00036146,0.0
 0007996,-0.00003664,-0.00010400,-0.00006470,0.00010286,-0.00002876,-0.
 00012712,-0.28539525,0.00403350,0.08406794,-0.01339593,0.00178885,0.00
 430344,0.00138584,0.00021958,-0.00106167,0.30555152,0.01687489,0.00117
 749,-0.00778603,-0.00124460,0.00066380,-0.00028569,0.00157596,-0.00390
 459,0.00201138,-0.00003723,-0.00002297,0.00068565,-0.00020397,-0.00005
 268,-0.00036714,-0.00007493,-0.00002106,-0.00010993,-0.00046278,0.0000
 3044,0.00002844,-0.00006268,0.00012506,0.00017540,0.00155720,0.0001435
 1,-0.00044106,-0.00127321,0.00102816,-0.00007945,-0.00036237,-0.000835
 92,-0.00005580,0.00009404,0.00005421,0.00008608,-0.00008939,0.00039045
 ,0.00029834,0.01678267,-0.03864633,-0.00895776,-0.02644053,0.00104295,
 0.00987847,-0.00099610,-0.00156993,0.00060785,-0.00563698,0.04039738,-
 0.00754203,-0.00066414,0.00147404,0.00060252,-0.00072965,0.00023008,-0
 .00075735,0.00171852,-0.00049578,-0.00001901,0.00024834,-0.00044505,0.
 00019543,-0.00002386,0.00022994,-0.00006992,0.00005108,0.00002438,-0.0
 0014439,0.00011375,0.00016145,0.00032064,-0.00003643,-0.00009181,-0.00
 057937,0.00012004,0.00045671,0.00036063,-0.00045443,-0.00015324,0.0000
 7902,0.00005408,0.00016723,0.00007711,-0.00006011,-0.00003512,-0.00011
 397,-0.00015317,-0.00009246,0.07628429,-0.00445125,-0.06783408,-0.0105
 3327,0.00125226,0.00249093,0.03189657,-0.00129628,-0.00965302,-0.09005
 692,0.00431124,0.07356580\\0.00003894,-0.00003085,0.00002474,-0.000057
 63,0.00000541,-0.00001998,0.00000057,0.00005173,0.00001177,-0.00001008
 ,0.00001661,-0.00002131,0.00002124,0.00000820,0.00002247,0.00000467,-0
 .00000428,-0.00000618,0.00000099,-0.00002362,0.00000399,-0.00000689,-0
 .00001440,0.00000560,-0.00000225,-0.00001220,-0.00000380,-0.00000921,0
 .00001821,-0.00002142,0.00000559,0.00000002,-0.00000020,0.00001162,0.0
 0000489,0.00000350,0.00000701,-0.00000401,-0.00001505,-0.00003075,-0.0
 0000326,0.00008712,0.00003530,-0.00001060,-0.00002894,-0.00000409,0.00
 001250,-0.00001446,-0.00000503,-0.00001434,-0.00002784\\\@


 A BIRD IN THE HAND IS SAFER THAN ONE OVERHEAD.

                       -- NEWTON'S SEVENTH LAW
 Job cpu time:       0 days  0 hours  5 minutes 14.1 seconds.
 File lengths (MBytes):  RWF=     51 Int=      0 D2E=      0 Chk=      3 Scr=      1
 Normal termination of Gaussian 09 at Mon May 13 12:42:12 2024.
